 **********************************************************************
                          MRCC program system
 **********************************************************************
 
                              Written by
 Mihaly Kallay, Peter R. Nagy, David Mester, Zoltan Rolik, Gyula Samu,
   Jozsef Csontos, Jozsef Csoka, P. Bernat Szabo, Laszlo Gyevi-Nagy,
    Bence Hegely, Istvan Ladjanszki, Lorant Szegedy, Bence Ladoczki,
       Klara Petrov, Mate Farkas, Pal D. Mezei, and Adam Ganyecz
 
        Department of Physical Chemistry and Materials Science
            Budapest University of Technology and Economics
                  Budapest P.O.Box 91, H-1521 Hungary
 
                              www.mrcc.hu
 
                    Release date: February 22, 2020

 ************************ 2021-11-29 13:55:44 *************************
 Executing minp...

 Reading input from MINP...
 
 Input file:
 
calc=SCF
dft=TPSS
scftype=uks
verbosity=3
mem=170GB
symm=off
unit=angs
scfiguess=small
scfmaxit=1000


core=1
mult=3
basis=def2-QZVPP

basis_sm=def2-SVP

dfbasis_scf=def2-QZVPP-RI-JK

dfbasis_cor=def2-QZVPP-RI

unit=angs
geom=xyz
2

O     0.00000000000    0.00000000000    0.00000000000
O     0.00000000000    0.00000000000    1.20739000000

ghost=serialno
2
 
 
 Checking keyword combinations...
 
 Keywords:
 
 active=none
 agrid=ld0006-ld0590
 basis=def2-qzvpp
 basis_sm=def2-svp
 basopt=off
 bfbasis=none
 bfgsmem=10
 bfgstol=1.0d-3
 bpcompo=0.985
 bpcompv=0.98
 bpdfo=0.985
 bpocc=0.985
 bppdo=0.985
 bppdv=0.98
 bpedo=0.985
 bpedv=0.98
 calc=scf
 ccmaxit=50
 ccprog=mrcc
 ccsdalg=disk
 ccsdmkl=seq
 ccsdrest=off
 ccsdthreads=2
 cctol=6
 charge=0
 cialg=disk
 ciguess=off
 cmpgrp=auto
 core=1
 corembed=off
 csapprox=off
 dboc=off
 dendec=cholesky
 dens=0
 dfalg=lineq
 dfbasis_cor=def2-qzvpp-ri
 dfbasis_scf=def2-qzvpp-ri-jk
 dfintran=drpa
 dft=tpss
 dhexc=adc(2)
 diag=david
 docc=
 domrad=10.d0
 drpaalg=fit
 dual=off
 ecp=auto
 edisp=off
 edisp_embed=off
 embed=off
 epert=none
 eps=0.975
 excrad=0.d0
 excrad_fin=0.000000000D+00
 fmm=off
 fmmord=8
 freq=off
 gauss=spher
 geom=xyz
 gopt=off
 ghost=serialno
 gtol=7
 grdens=off
 grtol=10
 hamilton=dc
 iface=none
 intalg=auto
 itol=10
 laptol=1.d-2
 lccoporder=trffirst
 lcorthr=normal
 lccrest=off
 lmp2dens=on
 lnoepso=0.d0
 lnoepsv=1e-6
 localcc=off
 localcorrsymm=off
 locintrf=disk
 mact=
 maxact=off
 maxdim=100
 maxex=0
 maxmicroit=100
 mcscfiguess=hf
 mem=170gb
 molden=on
 mpitasks=1
 mulmet=0
 mult=3
 nacto=0
 nactv=0
 naf_cor=off
 naf_scf=off
 nafalg=albe
 naftyp=
 nchol=auto
 ndeps=1e-3
 nstate=1
 nsing=0
 ntrip=0
 occ=
 oniom=off
 oniom_eechg=off
 oniom_pcm=off
 optalg=
 optmaxit=50
 optetol=1e-6
 optex=   0
 optgtol=1e-4
 optstol=1e-3
 orblocc=off
 orbloce=off
 orbloco=off
 orblocv=off
 orblocguess=cholesky
 osveps=1e-3
 ovirt=off
 ovltol=1e-7
 ovosnorb=80.0
 pcm=off
 popul=off
 pressure=100000
 pssp=off
 ptfreq=0.0
 ptthreads=2
 qscf=off
 qmmm=off
 redcost_exc=off
 redcost_tddft=off
 refdet=none
 rest=0
 rgrid=log3
 rohfcore=semicanonical
 rohftype=standard
 scfalg=auto
 scfdamp=off
 scfdiis=on
 scfdiis_end=1000
 scfdiis_start=1
 scfdiis_step=1
 scfdtol=6
 scfext=10
 scfguessdens=
 scfiguess=small
 scflshift=off
 scfmaxit=1000
 scftype=uhf
 scftol=6
 scspe=1.d0
 scsph=1.d0
 scsps=1.2d0
 scspt=0.33333333333333
 scspv=1.d0
 spairtol=1e-4
 subminp=top
 symm=0
 talg=occ
 temp=298.15
 test=off
 theodore=off
 tlmo=0.999
 tpao=0.94
 tprint=off
 uncontract=off
 unit=angs
 usedisk=2
 verbosity=3
 wpairtol=0.100000000E-05
 
 Calculating integrals for small-basis SCF...

 ************************ 2021-11-29 13:55:44 *************************
 Executing integ...

 Allocation of 170.0 Gbytes of memory...
 
 
 Number of atoms:                  2
 Charge:                           0
 Number of electrons:              8
 Number of core electrons:         2
 Spin multiplicity:                3
 
                 Cartesian coordinates [bohr]      Atomic mass [AMU]  Z
   1  O     0.00000000    0.00000000    0.00000000    15.994915       8
   2  O     0.00000000    0.00000000    2.28163643     0.000000       0
 
 This molecule is linear.
 
 Point group: Cxv 
 Computational point group: C1  
 
 Cartesian coordinates in standard orientation [bohr]
   1  O     0.00000000    0.00000000   -0.20742149
   2  O     0.00000000    0.00000000    2.07421493
 
 Nuclear repulsion energy [au]:          0.000000000000
 
 
 Basis set information:
 
 Maximum angular momentum: g
 Maximum number of contracted Gaussians:   10
 Maximum number of primitive Gaussians:    14
 Spherical harmonic GTOs are used.
 
 
 Conventional basis set:
 
    1  O  def2-svp [ 7s 4p 1d | 3s 2p 1d ]
    2  O  def2-svp [ 7s 4p 1d | 3s 2p 1d ]
 
 Basis functions:
            1             2             3             4             5             6             7             8             9            10
    0    1O1s          1O2s          1O3s          1O1pz         1O1py         1O1px         1O2pz         1O2py         1O2px         1O1d-2    
    1    1O1d-1        1O1d0         1O1d+1        1O1d+2        2O1s          2O2s          2O3s          2O1pz         2O1py         2O1px     
    2    2O2pz         2O2py         2O2px         2O1d-2        2O1d-1        2O1d0         2O1d+1        2O1d+2    
 
 Maximum number of basis functions per shell:    6
 Total number of basis functions:     28
 
 
 Fitting basis set for the SCF calculation:
 
    1  O  def2-qzvpp-ri-jk [ 14s 10p 6d 2f 1g | 10s 8p 4d 2f 1g ]
    2  O  def2-qzvpp-ri-jk [ 14s 10p 6d 2f 1g | 10s 8p 4d 2f 1g ]
 
 Basis functions:
            1             2             3             4             5             6             7             8             9            10
    0    1O1s          1O2s          1O3s          1O4s          1O5s          1O6s          1O7s          1O8s          1O9s          1O10s     
    1    1O1pz         1O1py         1O1px         1O2pz         1O2py         1O2px         1O3pz         1O3py         1O3px         1O4pz     
    2    1O4py         1O4px         1O5pz         1O5py         1O5px         1O6pz         1O6py         1O6px         1O7pz         1O7py     
    3    1O7px         1O8pz         1O8py         1O8px         1O1d-2        1O1d-1        1O1d0         1O1d+1        1O1d+2        1O2d-2    
    4    1O2d-1        1O2d0         1O2d+1        1O2d+2        1O3d-2        1O3d-1        1O3d0         1O3d+1        1O3d+2        1O4d-2    
    5    1O4d-1        1O4d0         1O4d+1        1O4d+2        1O1f-3        1O1f-2        1O1f-1        1O1f0         1O1f+1        1O1f+2    
    6    1O1f+3        1O2f-3        1O2f-2        1O2f-1        1O2f0         1O2f+1        1O2f+2        1O2f+3        1O1g-4        1O1g-3    
    7    1O1g-2        1O1g-1        1O1g0         1O1g+1        1O1g+2        1O1g+3        1O1g+4        2O1s          2O2s          2O3s      
    8    2O4s          2O5s          2O6s          2O7s          2O8s          2O9s          2O10s         2O1pz         2O1py         2O1px     
    9    2O2pz         2O2py         2O2px         2O3pz         2O3py         2O3px         2O4pz         2O4py         2O4px         2O5pz     
   10    2O5py         2O5px         2O6pz         2O6py         2O6px         2O7pz         2O7py         2O7px         2O8pz         2O8py     
   11    2O8px         2O1d-2        2O1d-1        2O1d0         2O1d+1        2O1d+2        2O2d-2        2O2d-1        2O2d0         2O2d+1    
   12    2O2d+2        2O3d-2        2O3d-1        2O3d0         2O3d+1        2O3d+2        2O4d-2        2O4d-1        2O4d0         2O4d+1    
   13    2O4d+2        2O1f-3        2O1f-2        2O1f-1        2O1f0         2O1f+1        2O1f+2        2O1f+3        2O2f-3        2O2f-2    
   14    2O2f-1        2O2f0         2O2f+1        2O2f+2        2O2f+3        2O1g-4        2O1g-3        2O1g-2        2O1g-1        2O1g0     
   15    2O1g+1        2O1g+2        2O1g+3        2O1g+4    
 
 Maximum number of basis functions per shell:   24
 Total number of basis functions:    154
 
 
 Generating atomic densities for the SCF calculation...
 CPU time [min]:     0.101                   Wall time [min]:     0.019
 
 Character table for point group C1:
 
          E  
    A     1
 
 Number of basis functions per irrep:
    A      28
 
 
 Density functional: TPSS
 Constructing integration grid for DFT...
 Angular integration grid: adaptive 590-point Lebedev quadrature
 Radial integration grid: Log3 quadrature
 Total number of grid points: 21132       
 CPU time [min]:     0.837                   Wall time [min]:     0.041
 
 Calculation of overlap integrals...
 CPU time [min]:     0.839                   Wall time [min]:     0.041
 
 Calculation of the square root of the overlap matrix...
 Minimum eigenvalue of the overlap matrix: 0.150377E-01
 CPU time [min]:     0.846                   Wall time [min]:     0.041
 
 Calculation of kinetic energy integrals...
 CPU time [min]:     0.847                   Wall time [min]:     0.041
 Calculation of nuclear attraction integrals...
 CPU time [min]:     0.847                   Wall time [min]:     0.041
 
 Calculation of prescreening integrals...
 CPU time [min]:     0.852                   Wall time [min]:     0.041
 
 Calculation of two-center Coulomb integrals...
   5% done.
  20% done.
  32% done.
  52% done.
  72% done.
  89% done.
 100% done.
 CPU time [min]:     0.859                   Wall time [min]:     0.041
 
 Calculation of inverse square root of the two-center integral matrix...
 CPU time [min]:     0.896                   Wall time [min]:     0.042
 
 Calculation of three-center Coulomb integrals...
   1% done.
  26% done.
  38% done.
  68% done.
 100% done.
 CPU time [min]:     0.907                   Wall time [min]:     0.043
 
 Running small-basis SCF...

 ************************ 2021-11-29 13:55:47 *************************
 Executing scf...

 @scfsetup: integrals taken from disk
            mrcc/integ binary format
 @scfsetup: calculating on full matrices
            not using symmetry adapted basis
 @scfsetup: diis switched on
 @scfsetup: number of steps to extrapolate from  10
 @scfsetup: tolerance in energy deviation    0.100000E-05
            tolerance in density deviation    0.100000E-05
 @scfsetup: maximum number of iterations:1000
 @scfsetup: unrestricted hf calc
 @scfsetup: starting scf from superposition of atomic densities
 @scfsetup: occupation set:
            from initial orbitals
 @scfsetup: diis runs from iteration:   1
 @scfsetup: diis runs to iteration:1000
 @scfsetup: diis runs in every iteration
 Allocation of 170.0 Gbytes of memory...
 ======================================================================
 ITERATION STEP   1
 CPU time [min]:     0.006                   Wall time [min]:     0.002
 
 Constructing alpha Fock-matrix...
 CPU time [min]:     0.015                   Wall time [min]:     0.002
 
 Calculating the exchange-correlation matrix...
           1.0000*MGGA_X_TPSS [au]:     -8.103322114093
           1.0000*MGGA_C_TPSS [au]:     -0.237413655912
 Exchange-correlation energy  [au]:     -8.340735770005
 CPU time [min]:     0.166                   Wall time [min]:     0.007
 
 Coulomb energy + HF exchange [au]:     35.572141948191
 Gradient norm:      7.2087E-01
 RMS of alpha difference density:                      0.00362179601728
 RMS of beta  difference density:                      0.00163336641234
 Gap [au]:  0.06978118
 ALPHA OCC:   5
 BETA  OCC:   3
 
 ***KOHN-SHAM ENERGY IN STEP   1 IS            -74.9728013776427673 [AU]
 ======================================================================
 ITERATION STEP   2
 CPU time [min]:     0.170                   Wall time [min]:     0.007
 
 Constructing alpha Fock-matrix...
 CPU time [min]:     0.178                   Wall time [min]:     0.007
 
 Calculating the exchange-correlation matrix...
           1.0000*MGGA_X_TPSS [au]:     -8.188686532397
           1.0000*MGGA_C_TPSS [au]:     -0.238621010245
 Exchange-correlation energy  [au]:     -8.427307542642
 CPU time [min]:     0.331                   Wall time [min]:     0.012
 
 Coulomb energy + HF exchange [au]:     36.179432161397
 Gradient norm:      1.0464E-01
 DIIS is running in this iteration step.
 RMS of [F,P]:                                         0.01158548863814
 RMS of alpha difference density:                      0.00170732114461
 RMS of beta  difference density:                      0.00068693448753
 Gap [au]:  0.06969147
 ALPHA OCC:   5
 BETA  OCC:   3
 
 ***KOHN-SHAM ENERGY IN STEP   2 IS            -75.0000026696463067 [AU]
 ======================================================================
 ITERATION STEP   3
 CPU time [min]:     0.343                   Wall time [min]:     0.012
 
 Constructing alpha Fock-matrix...
 CPU time [min]:     0.359                   Wall time [min]:     0.012
 
 Calculating the exchange-correlation matrix...
           1.0000*MGGA_X_TPSS [au]:     -8.223545902565
           1.0000*MGGA_C_TPSS [au]:     -0.239101951156
 Exchange-correlation energy  [au]:     -8.462647853721
 CPU time [min]:     0.507                   Wall time [min]:     0.016
 
 Coulomb energy + HF exchange [au]:     36.429985036754
 Gradient norm:      3.3836E-02
 DIIS is running in this iteration step.
 RMS of [F,P]:                                         0.00780978504766
 RMS of alpha difference density:                      0.00061504548197
 RMS of beta  difference density:                      0.00074310988383
 Gap [au]:  0.07079281
 ALPHA OCC:   5
 BETA  OCC:   3
 
 ***KOHN-SHAM ENERGY IN STEP   3 IS            -75.0070027704973086 [AU]
 ======================================================================
 ITERATION STEP   4
 CPU time [min]:     0.512                   Wall time [min]:     0.016
 
 Constructing alpha Fock-matrix...
 CPU time [min]:     0.522                   Wall time [min]:     0.016
 
 Calculating the exchange-correlation matrix...
           1.0000*MGGA_X_TPSS [au]:     -8.226500197369
           1.0000*MGGA_C_TPSS [au]:     -0.238772663278
 Exchange-correlation energy  [au]:     -8.465272860647
 CPU time [min]:     0.635                   Wall time [min]:     0.019
 
 Coulomb energy + HF exchange [au]:     36.443473687149
 Gradient norm:      8.2636E-02
 DIIS is running in this iteration step.
 RMS of [F,P]:                                         0.00585008773574
 RMS of alpha difference density:                      0.00246374017488
 RMS of beta  difference density:                      0.00171328605969
 Gap [au]:  0.07673208
 ALPHA OCC:   5
 BETA  OCC:   3
 
 ***KOHN-SHAM ENERGY IN STEP   4 IS            -75.0105885749499066 [AU]
 ======================================================================
 ITERATION STEP   5
 CPU time [min]:     0.640                   Wall time [min]:     0.019
 
 Constructing alpha Fock-matrix...
 CPU time [min]:     0.650                   Wall time [min]:     0.020
 
 Calculating the exchange-correlation matrix...
           1.0000*MGGA_X_TPSS [au]:     -8.254463156125
           1.0000*MGGA_C_TPSS [au]:     -0.239137206322
 Exchange-correlation energy  [au]:     -8.493600362447
 CPU time [min]:     0.763                   Wall time [min]:     0.023
 
 Coulomb energy + HF exchange [au]:     36.657761517849
 Gradient norm:      1.3623E-02
 DIIS is running in this iteration step.
 RMS of [F,P]:                                         0.00035558700139
 RMS of alpha difference density:                      0.00014527662134
 RMS of beta  difference density:                      0.00019428614741
 Gap [au]:  0.07443557
 ALPHA OCC:   5
 BETA  OCC:   3
 
 ***KOHN-SHAM ENERGY IN STEP   5 IS            -75.0116722871643162 [AU]
 ======================================================================
 ITERATION STEP   6
 CPU time [min]:     0.767                   Wall time [min]:     0.023
 
 Constructing alpha Fock-matrix...
 CPU time [min]:     0.777                   Wall time [min]:     0.023
 
 Calculating the exchange-correlation matrix...
           1.0000*MGGA_X_TPSS [au]:     -8.255423598865
           1.0000*MGGA_C_TPSS [au]:     -0.239182179873
 Exchange-correlation energy  [au]:     -8.494605778738
 CPU time [min]:     0.889                   Wall time [min]:     0.026
 
 Coulomb energy + HF exchange [au]:     36.666368068862
 Gradient norm:      5.9278E-03
 DIIS is running in this iteration step.
 RMS of [F,P]:                                         0.00015254543574
 RMS of alpha difference density:                      0.00007010200692
 RMS of beta  difference density:                      0.00006622527130
 Gap [au]:  0.07391411
 ALPHA OCC:   5
 BETA  OCC:   3
 
 ***KOHN-SHAM ENERGY IN STEP   6 IS            -75.0116988061927827 [AU]
 ======================================================================
 ITERATION STEP   7
 CPU time [min]:     0.894                   Wall time [min]:     0.026
 
 Constructing alpha Fock-matrix...
 CPU time [min]:     0.904                   Wall time [min]:     0.026
 
 Calculating the exchange-correlation matrix...
           1.0000*MGGA_X_TPSS [au]:     -8.254994124481
           1.0000*MGGA_C_TPSS [au]:     -0.239188870447
 Exchange-correlation energy  [au]:     -8.494182994928
 CPU time [min]:     1.017                   Wall time [min]:     0.029
 
 Coulomb energy + HF exchange [au]:     36.664185481499
 Gradient norm:      2.9245E-03
 DIIS is running in this iteration step.
 RMS of [F,P]:                                         0.00007526834380
 RMS of alpha difference density:                      0.00003210641383
 RMS of beta  difference density:                      0.00003135161179
 Gap [au]:  0.07368884
 ALPHA OCC:   5
 BETA  OCC:   3
 
 ***KOHN-SHAM ENERGY IN STEP   7 IS            -75.0117042395382327 [AU]
 ======================================================================
 ITERATION STEP   8
 CPU time [min]:     1.021                   Wall time [min]:     0.029
 
 Constructing alpha Fock-matrix...
 CPU time [min]:     1.031                   Wall time [min]:     0.029
 
 Calculating the exchange-correlation matrix...
           1.0000*MGGA_X_TPSS [au]:     -8.254749907933
           1.0000*MGGA_C_TPSS [au]:     -0.239191313096
 Exchange-correlation energy  [au]:     -8.493941221029
 CPU time [min]:     1.144                   Wall time [min]:     0.032
 
 Coulomb energy + HF exchange [au]:     36.662854015507
 Gradient norm:      1.4820E-03
 DIIS is running in this iteration step.
 RMS of [F,P]:                                         0.00003784303359
 RMS of alpha difference density:                      0.00002964384395
 RMS of beta  difference density:                      0.00002942723615
 Gap [au]:  0.07347158
 ALPHA OCC:   5
 BETA  OCC:   3
 
 ***KOHN-SHAM ENERGY IN STEP   8 IS            -75.0117055531017343 [AU]
 ======================================================================
 ITERATION STEP   9
 CPU time [min]:     1.148                   Wall time [min]:     0.032
 
 Constructing alpha Fock-matrix...
 CPU time [min]:     1.158                   Wall time [min]:     0.032
 
 Calculating the exchange-correlation matrix...
           1.0000*MGGA_X_TPSS [au]:     -8.254529762822
           1.0000*MGGA_C_TPSS [au]:     -0.239193790051
 Exchange-correlation energy  [au]:     -8.493723552873
 CPU time [min]:     1.271                   Wall time [min]:     0.035
 
 Coulomb energy + HF exchange [au]:     36.661655976787
 Gradient norm:      1.4972E-04
 DIIS is running in this iteration step.
 RMS of [F,P]:                                         0.00000366775804
 RMS of alpha difference density:                      0.00000592423783
 RMS of beta  difference density:                      0.00000577709860
 Gap [au]:  0.07344578
 ALPHA OCC:   5
 BETA  OCC:   3
 
 ***KOHN-SHAM ENERGY IN STEP   9 IS            -75.0117059975667786 [AU]
 ======================================================================
 ITERATION STEP  10
 CPU time [min]:     1.275                   Wall time [min]:     0.035
 
 Constructing alpha Fock-matrix...
 CPU time [min]:     1.285                   Wall time [min]:     0.036
 
 Calculating the exchange-correlation matrix...
           1.0000*MGGA_X_TPSS [au]:     -8.254484596575
           1.0000*MGGA_C_TPSS [au]:     -0.239194195120
 Exchange-correlation energy  [au]:     -8.493678791696
 CPU time [min]:     1.396                   Wall time [min]:     0.038
 
 Coulomb energy + HF exchange [au]:     36.661407419632
 Gradient norm:      1.2087E-04
 DIIS is running in this iteration step.
 RMS of [F,P]:                                         0.00000312349437
 RMS of alpha difference density:                      0.00000257232839
 RMS of beta  difference density:                      0.00000254061980
 Gap [au]:  0.07346540
 ALPHA OCC:   5
 BETA  OCC:   3
 
 ***KOHN-SHAM ENERGY IN STEP  10 IS            -75.0117059994933442 [AU]
 ======================================================================
 ITERATION STEP  11
 CPU time [min]:     1.401                   Wall time [min]:     0.039
 
 Constructing alpha Fock-matrix...
 CPU time [min]:     1.411                   Wall time [min]:     0.039
 
 Calculating the exchange-correlation matrix...
           1.0000*MGGA_X_TPSS [au]:     -8.254503947492
           1.0000*MGGA_C_TPSS [au]:     -0.239193985647
 Exchange-correlation energy  [au]:     -8.493697933139
 CPU time [min]:     1.522                   Wall time [min]:     0.042
 
 Coulomb energy + HF exchange [au]:     36.661513150232
 Gradient norm:      4.7879E-06
 DIIS is running in this iteration step.
 RMS of [F,P]:                                         0.00000012895038
 RMS of alpha difference density:                      0.00000011076647
 RMS of beta  difference density:                      0.00000016702540
 Gap [au]:  0.07346627
 ALPHA OCC:   5
 BETA  OCC:   3
 
 ***KOHN-SHAM ENERGY IN STEP  11 IS            -75.0117060024467577 [AU]
 ======================================================================
 
 SUCCESS...
 THE SCF ITERATION HAS CONVERGED!
 
                   A   
 FINAL ALPHA OCC:   5
 FINAL BETA  OCC:   3
 
 ***FINAL KOHN-SHAM ENERGY:           -75.0117060024467577 [AU]
 
 Expectation value of S^2:  2.0025
 Average multiplicity:      3.0017
 
 Orbital energies [au]:
      Irrep         Alpha          Beta
    1   A        -19.022360     -18.968579
    2   A         -0.912392      -0.769418
    3   A         -0.389217      -0.269395
 
    4   A         -0.389021      -0.195929
    5   A         -0.306828      -0.195032
 
    6   A          0.307303       0.350889
    7   A          0.549727       0.586205
    8   A          0.562949       0.597271
    9   A          0.686548       0.765862
   10   A          0.859355       0.943634
   11   A          0.903635       0.980666
   12   A          0.918404       0.998151
   13   A          1.007967       1.100495
   14   A          1.824818       1.872134
   15   A          2.415554       2.570021
   16   A          2.469600       2.579263
   17   A          2.470053       2.586956
   18   A          2.471189       2.593151
   19   A          2.840197       2.973591
   20   A          3.987433       4.017048
   21   A          3.987749       4.018230
   22   A          4.377797       4.447437
   23   A          4.393506       4.452792
   24   A          4.815614       4.851063
   25   A          5.102207       5.133504
   26   A          5.105319       5.134909
   27   A          5.804060       5.892595
   28   A         34.076498      34.076782
 
 RETURNING FROM SCF ALGORITHM
 ======================================================================

 ************************ 2021-11-29 13:55:49 *************************
 Executing integ...

 Allocation of 170.0 Gbytes of memory...
 
 
 Number of atoms:                  2
 Charge:                           0
 Number of electrons:              8
 Number of core electrons:         2
 Spin multiplicity:                3
 
                 Cartesian coordinates [bohr]      Atomic mass [AMU]  Z
   1  O     0.00000000    0.00000000    0.00000000    15.994915       8
   2  O     0.00000000    0.00000000    2.28163643     0.000000       0
 
 This molecule is linear.
 
 Point group: Cxv 
 Computational point group: C1  
 
 Cartesian coordinates in standard orientation [bohr]
   1  O     0.00000000    0.00000000   -0.20742149
   2  O     0.00000000    0.00000000    2.07421493
 
 Nuclear repulsion energy [au]:          0.000000000000
 
 
 Basis set information:
 
 Maximum angular momentum: h
 Maximum number of contracted Gaussians:   10
 Maximum number of primitive Gaussians:    15
 Spherical harmonic GTOs are used.
 
 
 Conventional basis set:
 
    1  O  def2-qzvpp [ 15s 8p 3d 2f 1g | 7s 4p 3d 2f 1g ]
    2  O  def2-qzvpp [ 15s 8p 3d 2f 1g | 7s 4p 3d 2f 1g ]
 
 Basis functions:
            1             2             3             4             5             6             7             8             9            10
    0    1O1s          1O2s          1O3s          1O4s          1O5s          1O6s          1O7s          1O1pz         1O1py         1O1px     
    1    1O2pz         1O2py         1O2px         1O3pz         1O3py         1O3px         1O4pz         1O4py         1O4px         1O1d-2    
    2    1O1d-1        1O1d0         1O1d+1        1O1d+2        1O2d-2        1O2d-1        1O2d0         1O2d+1        1O2d+2        1O3d-2    
    3    1O3d-1        1O3d0         1O3d+1        1O3d+2        1O1f-3        1O1f-2        1O1f-1        1O1f0         1O1f+1        1O1f+2    
    4    1O1f+3        1O2f-3        1O2f-2        1O2f-1        1O2f0         1O2f+1        1O2f+2        1O2f+3        1O1g-4        1O1g-3    
    5    1O1g-2        1O1g-1        1O1g0         1O1g+1        1O1g+2        1O1g+3        1O1g+4        2O1s          2O2s          2O3s      
    6    2O4s          2O5s          2O6s          2O7s          2O1pz         2O1py         2O1px         2O2pz         2O2py         2O2px     
    7    2O3pz         2O3py         2O3px         2O4pz         2O4py         2O4px         2O1d-2        2O1d-1        2O1d0         2O1d+1    
    8    2O1d+2        2O2d-2        2O2d-1        2O2d0         2O2d+1        2O2d+2        2O3d-2        2O3d-1        2O3d0         2O3d+1    
    9    2O3d+2        2O1f-3        2O1f-2        2O1f-1        2O1f0         2O1f+1        2O1f+2        2O1f+3        2O2f-3        2O2f-2    
   10    2O2f-1        2O2f0         2O2f+1        2O2f+2        2O2f+3        2O1g-4        2O1g-3        2O1g-2        2O1g-1        2O1g0     
   11    2O1g+1        2O1g+2        2O1g+3        2O1g+4    
 
 Maximum number of basis functions per shell:   15
 Total number of basis functions:    114
 
 
 Fitting basis set for the SCF calculation:
 
    1  O  def2-qzvpp-ri-jk [ 14s 10p 6d 2f 1g | 10s 8p 4d 2f 1g ]
    2  O  def2-qzvpp-ri-jk [ 14s 10p 6d 2f 1g | 10s 8p 4d 2f 1g ]
 
 Basis functions:
            1             2             3             4             5             6             7             8             9            10
    0    1O1s          1O2s          1O3s          1O4s          1O5s          1O6s          1O7s          1O8s          1O9s          1O10s     
    1    1O1pz         1O1py         1O1px         1O2pz         1O2py         1O2px         1O3pz         1O3py         1O3px         1O4pz     
    2    1O4py         1O4px         1O5pz         1O5py         1O5px         1O6pz         1O6py         1O6px         1O7pz         1O7py     
    3    1O7px         1O8pz         1O8py         1O8px         1O1d-2        1O1d-1        1O1d0         1O1d+1        1O1d+2        1O2d-2    
    4    1O2d-1        1O2d0         1O2d+1        1O2d+2        1O3d-2        1O3d-1        1O3d0         1O3d+1        1O3d+2        1O4d-2    
    5    1O4d-1        1O4d0         1O4d+1        1O4d+2        1O1f-3        1O1f-2        1O1f-1        1O1f0         1O1f+1        1O1f+2    
    6    1O1f+3        1O2f-3        1O2f-2        1O2f-1        1O2f0         1O2f+1        1O2f+2        1O2f+3        1O1g-4        1O1g-3    
    7    1O1g-2        1O1g-1        1O1g0         1O1g+1        1O1g+2        1O1g+3        1O1g+4        2O1s          2O2s          2O3s      
    8    2O4s          2O5s          2O6s          2O7s          2O8s          2O9s          2O10s         2O1pz         2O1py         2O1px     
    9    2O2pz         2O2py         2O2px         2O3pz         2O3py         2O3px         2O4pz         2O4py         2O4px         2O5pz     
   10    2O5py         2O5px         2O6pz         2O6py         2O6px         2O7pz         2O7py         2O7px         2O8pz         2O8py     
   11    2O8px         2O1d-2        2O1d-1        2O1d0         2O1d+1        2O1d+2        2O2d-2        2O2d-1        2O2d0         2O2d+1    
   12    2O2d+2        2O3d-2        2O3d-1        2O3d0         2O3d+1        2O3d+2        2O4d-2        2O4d-1        2O4d0         2O4d+1    
   13    2O4d+2        2O1f-3        2O1f-2        2O1f-1        2O1f0         2O1f+1        2O1f+2        2O1f+3        2O2f-3        2O2f-2    
   14    2O2f-1        2O2f0         2O2f+1        2O2f+2        2O2f+3        2O1g-4        2O1g-3        2O1g-2        2O1g-1        2O1g0     
   15    2O1g+1        2O1g+2        2O1g+3        2O1g+4    
 
 Maximum number of basis functions per shell:   24
 Total number of basis functions:    154
 
 
 Fitting basis set for the correlation calculation:
 
    1  O  def2-qzvpp-ri [ 9s 8p 7d 5f 3g 1h | 9s 8p 7d 5f 3g 1h ]
    2  O  def2-qzvpp-ri [ 9s 8p 7d 5f 3g 1h | 9s 8p 7d 5f 3g 1h ]
 
 Basis functions:
            1             2             3             4             5             6             7             8             9            10
    0    1O1s          1O2s          1O3s          1O4s          1O5s          1O6s          1O7s          1O8s          1O9s          1O1pz     
    1    1O1py         1O1px         1O2pz         1O2py         1O2px         1O3pz         1O3py         1O3px         1O4pz         1O4py     
    2    1O4px         1O5pz         1O5py         1O5px         1O6pz         1O6py         1O6px         1O7pz         1O7py         1O7px     
    3    1O8pz         1O8py         1O8px         1O1d-2        1O1d-1        1O1d0         1O1d+1        1O1d+2        1O2d-2        1O2d-1    
    4    1O2d0         1O2d+1        1O2d+2        1O3d-2        1O3d-1        1O3d0         1O3d+1        1O3d+2        1O4d-2        1O4d-1    
    5    1O4d0         1O4d+1        1O4d+2        1O5d-2        1O5d-1        1O5d0         1O5d+1        1O5d+2        1O6d-2        1O6d-1    
    6    1O6d0         1O6d+1        1O6d+2        1O7d-2        1O7d-1        1O7d0         1O7d+1        1O7d+2        1O1f-3        1O1f-2    
    7    1O1f-1        1O1f0         1O1f+1        1O1f+2        1O1f+3        1O2f-3        1O2f-2        1O2f-1        1O2f0         1O2f+1    
    8    1O2f+2        1O2f+3        1O3f-3        1O3f-2        1O3f-1        1O3f0         1O3f+1        1O3f+2        1O3f+3        1O4f-3    
    9    1O4f-2        1O4f-1        1O4f0         1O4f+1        1O4f+2        1O4f+3        1O5f-3        1O5f-2        1O5f-1        1O5f0     
   10    1O5f+1        1O5f+2        1O5f+3        1O1g-4        1O1g-3        1O1g-2        1O1g-1        1O1g0         1O1g+1        1O1g+2    
   11    1O1g+3        1O1g+4        1O2g-4        1O2g-3        1O2g-2        1O2g-1        1O2g0         1O2g+1        1O2g+2        1O2g+3    
   12    1O2g+4        1O3g-4        1O3g-3        1O3g-2        1O3g-1        1O3g0         1O3g+1        1O3g+2        1O3g+3        1O3g+4    
   13    1O1h-5        1O1h-4        1O1h-3        1O1h-2        1O1h-1        1O1h0         1O1h+1        1O1h+2        1O1h+3        1O1h+4    
   14    1O1h+5        2O1s          2O2s          2O3s          2O4s          2O5s          2O6s          2O7s          2O8s          2O9s      
   15    2O1pz         2O1py         2O1px         2O2pz         2O2py         2O2px         2O3pz         2O3py         2O3px         2O4pz     
   16    2O4py         2O4px         2O5pz         2O5py         2O5px         2O6pz         2O6py         2O6px         2O7pz         2O7py     
   17    2O7px         2O8pz         2O8py         2O8px         2O1d-2        2O1d-1        2O1d0         2O1d+1        2O1d+2        2O2d-2    
   18    2O2d-1        2O2d0         2O2d+1        2O2d+2        2O3d-2        2O3d-1        2O3d0         2O3d+1        2O3d+2        2O4d-2    
   19    2O4d-1        2O4d0         2O4d+1        2O4d+2        2O5d-2        2O5d-1        2O5d0         2O5d+1        2O5d+2        2O6d-2    
   20    2O6d-1        2O6d0         2O6d+1        2O6d+2        2O7d-2        2O7d-1        2O7d0         2O7d+1        2O7d+2        2O1f-3    
   21    2O1f-2        2O1f-1        2O1f0         2O1f+1        2O1f+2        2O1f+3        2O2f-3        2O2f-2        2O2f-1        2O2f0     
   22    2O2f+1        2O2f+2        2O2f+3        2O3f-3        2O3f-2        2O3f-1        2O3f0         2O3f+1        2O3f+2        2O3f+3    
   23    2O4f-3        2O4f-2        2O4f-1        2O4f0         2O4f+1        2O4f+2        2O4f+3        2O5f-3        2O5f-2        2O5f-1    
   24    2O5f0         2O5f+1        2O5f+2        2O5f+3        2O1g-4        2O1g-3        2O1g-2        2O1g-1        2O1g0         2O1g+1    
   25    2O1g+2        2O1g+3        2O1g+4        2O2g-4        2O2g-3        2O2g-2        2O2g-1        2O2g0         2O2g+1        2O2g+2    
   26    2O2g+3        2O2g+4        2O3g-4        2O3g-3        2O3g-2        2O3g-1        2O3g0         2O3g+1        2O3g+2        2O3g+3    
   27    2O3g+4        2O1h-5        2O1h-4        2O1h-3        2O1h-2        2O1h-1        2O1h0         2O1h+1        2O1h+2        2O1h+3    
   28    2O1h+4        2O1h+5    
 
 Maximum number of basis functions per shell:   35
 Total number of basis functions:    282
 
 
 Old basis set for SCF restart
 
    1  O  def2-svp [ 7s 4p 1d | 3s 2p 1d ]
    2  O  def2-svp [ 7s 4p 1d | 3s 2p 1d ]
 
 Basis functions:
            1             2             3             4             5             6             7             8             9            10
    0    1O1s          1O2s          1O3s          1O1pz         1O1py         1O1px         1O2pz         1O2py         1O2px         1O1d-2    
    1    1O1d-1        1O1d0         1O1d+1        1O1d+2        2O1s          2O2s          2O3s          2O1pz         2O1py         2O1px     
    2    2O2pz         2O2py         2O2px         2O1d-2        2O1d-1        2O1d0         2O1d+1        2O1d+2    
 
 Maximum number of basis functions per shell:   35
 Total number of basis functions:     28
 
 
 Generating atomic densities for the SCF calculation...
 CPU time [min]:     0.109                   Wall time [min]:     0.020
 
 Character table for point group C1:
 
          E  
    A     1
 
 Number of basis functions per irrep:
    A     114
 
 
 Density functional: TPSS
 Constructing integration grid for DFT...
 Angular integration grid: adaptive 590-point Lebedev quadrature
 Radial integration grid: Log3 quadrature
 Total number of grid points: 26868       
 CPU time [min]:     0.925                   Wall time [min]:     0.043
 
 Calculation of overlap integrals...
 CPU time [min]:     0.927                   Wall time [min]:     0.043
 
 Calculation of the square root of the overlap matrix...
 Minimum eigenvalue of the overlap matrix: 0.549185E-03
 CPU time [min]:     0.939                   Wall time [min]:     0.044
 
 Calculation of kinetic energy integrals...
 CPU time [min]:     0.940                   Wall time [min]:     0.044
 Calculation of nuclear attraction integrals...
 CPU time [min]:     0.940                   Wall time [min]:     0.044
 Calculation of overlap integrals...
 CPU time [min]:     0.940                   Wall time [min]:     0.044
 
 Calculation of prescreening integrals...
 CPU time [min]:     1.040                   Wall time [min]:     0.046
 
 Calculation of two-center Coulomb integrals...
   5% done.
  20% done.
  32% done.
  52% done.
  72% done.
  89% done.
 100% done.
 CPU time [min]:     1.047                   Wall time [min]:     0.046
 
 Calculation of inverse square root of the two-center integral matrix...
 CPU time [min]:     1.056                   Wall time [min]:     0.047
 
 Calculation of three-center Coulomb integrals...
   3% done.
  18% done.
  32% done.
  45% done.
  64% done.
  85% done.
 100% done.
 CPU time [min]:     1.082                   Wall time [min]:     0.047

 ************************ 2021-11-29 13:55:52 *************************
 Executing scf...

 @scfsetup: integrals taken from disk
            mrcc/integ binary format
 @scfsetup: calculating on full matrices
            not using symmetry adapted basis
 @scfsetup: diis switched on
 @scfsetup: number of steps to extrapolate from  10
 @scfsetup: tolerance in energy deviation    0.100000E-05
            tolerance in density deviation    0.100000E-05
 @scfsetup: maximum number of iterations:1000
 @scfsetup: unrestricted hf calc
 @scfsetup: restarting scf from SCFDENSITIES file
 @scfsetup: occupation set:
            from initial orbitals
 @scfsetup: diis runs from iteration:   1
 @scfsetup: diis runs to iteration:1000
 @scfsetup: diis runs in every iteration
 Allocation of 170.0 Gbytes of memory...
 ======================================================================
 ITERATION STEP   1
 CPU time [min]:     0.019                   Wall time [min]:     0.003
 
 Constructing alpha Fock-matrix...
 CPU time [min]:     0.030                   Wall time [min]:     0.003
 
 Calculating the exchange-correlation matrix...
           1.0000*MGGA_X_TPSS [au]:     -8.258321303255
           1.0000*MGGA_C_TPSS [au]:     -0.239120779733
 Exchange-correlation energy  [au]:     -8.497442082988
 CPU time [min]:     0.288                   Wall time [min]:     0.010
 
 Coulomb energy + HF exchange [au]:     36.690655692984
 Gradient norm:      4.1088E+00
 RMS of alpha difference density:                      0.00083700958161
 RMS of beta  difference density:                      0.00052746279984
 Gap [au]:  0.07317741
 ALPHA OCC:   5
 BETA  OCC:   3
 
 ***KOHN-SHAM ENERGY IN STEP   1 IS            -75.0485360040442373 [AU]
 ======================================================================
 ITERATION STEP   2
 CPU time [min]:     0.302                   Wall time [min]:     0.011
 
 Constructing alpha Fock-matrix...
 CPU time [min]:     0.315                   Wall time [min]:     0.011
 
 Calculating the exchange-correlation matrix...
           1.0000*MGGA_X_TPSS [au]:     -8.254505762066
           1.0000*MGGA_C_TPSS [au]:     -0.238369399675
 Exchange-correlation energy  [au]:     -8.492875161742
 CPU time [min]:     0.542                   Wall time [min]:     0.017
 
 Coulomb energy + HF exchange [au]:     36.657758095077
 Gradient norm:      4.9220E-03
 DIIS is running in this iteration step.
 RMS of [F,P]:                                         0.01889781782823
 RMS of alpha difference density:                      0.00053897498665
 RMS of beta  difference density:                      0.00033984078354
 Gap [au]:  0.07379195
 ALPHA OCC:   5
 BETA  OCC:   3
 
 ***KOHN-SHAM ENERGY IN STEP   2 IS            -75.0792232495921041 [AU]
 ======================================================================
 ITERATION STEP   3
 CPU time [min]:     0.557                   Wall time [min]:     0.017
 
 Constructing alpha Fock-matrix...
 CPU time [min]:     0.570                   Wall time [min]:     0.017
 
 Calculating the exchange-correlation matrix...
           1.0000*MGGA_X_TPSS [au]:     -8.253718419369
           1.0000*MGGA_C_TPSS [au]:     -0.237915590867
 Exchange-correlation energy  [au]:     -8.491634010236
 CPU time [min]:     0.774                   Wall time [min]:     0.022
 
 Coulomb energy + HF exchange [au]:     36.646956137237
 Gradient norm:      1.2421E-02
 DIIS is running in this iteration step.
 RMS of [F,P]:                                         0.01323984004620
 RMS of alpha difference density:                      0.00037357411145
 RMS of beta  difference density:                      0.00024410923368
 Gap [au]:  0.07531318
 ALPHA OCC:   5
 BETA  OCC:   3
 
 ***KOHN-SHAM ENERGY IN STEP   3 IS            -75.0940931042243278 [AU]
 ======================================================================
 ITERATION STEP   4
 CPU time [min]:     0.790                   Wall time [min]:     0.023
 
 Constructing alpha Fock-matrix...
 CPU time [min]:     0.803                   Wall time [min]:     0.023
 
 Calculating the exchange-correlation matrix...
           1.0000*MGGA_X_TPSS [au]:     -8.251006182020
           1.0000*MGGA_C_TPSS [au]:     -0.236770585769
 Exchange-correlation energy  [au]:     -8.487776767788
 CPU time [min]:     1.008                   Wall time [min]:     0.028
 
 Coulomb energy + HF exchange [au]:     36.637668046207
 Gradient norm:      1.1318E-02
 DIIS is running in this iteration step.
 RMS of [F,P]:                                         0.00929299968685
 RMS of alpha difference density:                      0.00085672543808
 RMS of beta  difference density:                      0.00058148347394
 Gap [au]:  0.07509802
 ALPHA OCC:   5
 BETA  OCC:   3
 
 ***KOHN-SHAM ENERGY IN STEP   4 IS            -75.0986431449846066 [AU]
 ======================================================================
 ITERATION STEP   5
 CPU time [min]:     1.019                   Wall time [min]:     0.029
 
 Constructing alpha Fock-matrix...
 CPU time [min]:     1.032                   Wall time [min]:     0.029
 
 Calculating the exchange-correlation matrix...
           1.0000*MGGA_X_TPSS [au]:     -8.250839928042
           1.0000*MGGA_C_TPSS [au]:     -0.236706780441
 Exchange-correlation energy  [au]:     -8.487546708483
 CPU time [min]:     1.235                   Wall time [min]:     0.034
 
 Coulomb energy + HF exchange [au]:     36.608833140812
 Gradient norm:      4.9489E-03
 DIIS is running in this iteration step.
 RMS of [F,P]:                                         0.00004024564969
 RMS of alpha difference density:                      0.00004995801765
 RMS of beta  difference density:                      0.00003828732314
 Gap [au]:  0.07540490
 ALPHA OCC:   5
 BETA  OCC:   3
 
 ***KOHN-SHAM ENERGY IN STEP   5 IS            -75.1088571839761130 [AU]
 ======================================================================
 ITERATION STEP   6
 CPU time [min]:     1.244                   Wall time [min]:     0.034
 
 Constructing alpha Fock-matrix...
 CPU time [min]:     1.257                   Wall time [min]:     0.035
 
 Calculating the exchange-correlation matrix...
           1.0000*MGGA_X_TPSS [au]:     -8.249603046896
           1.0000*MGGA_C_TPSS [au]:     -0.236625760564
 Exchange-correlation energy  [au]:     -8.486228807460
 CPU time [min]:     1.461                   Wall time [min]:     0.040
 
 Coulomb energy + HF exchange [au]:     36.599792797896
 Gradient norm:      1.6263E-03
 DIIS is running in this iteration step.
 RMS of [F,P]:                                         0.00001335142743
 RMS of alpha difference density:                      0.00000585425182
 RMS of beta  difference density:                      0.00000499417688
 Gap [au]:  0.07550112
 ALPHA OCC:   5
 BETA  OCC:   3
 
 ***KOHN-SHAM ENERGY IN STEP   6 IS            -75.1088655184899494 [AU]
 ======================================================================
 ITERATION STEP   7
 CPU time [min]:     1.471                   Wall time [min]:     0.040
 
 Constructing alpha Fock-matrix...
 CPU time [min]:     1.484                   Wall time [min]:     0.040
 
 Calculating the exchange-correlation matrix...
           1.0000*MGGA_X_TPSS [au]:     -8.250283142053
           1.0000*MGGA_C_TPSS [au]:     -0.236639805507
 Exchange-correlation energy  [au]:     -8.486922947559
 CPU time [min]:     1.685                   Wall time [min]:     0.045
 
 Coulomb energy + HF exchange [au]:     36.604375653587
 Gradient norm:      1.1675E-03
 DIIS is running in this iteration step.
 RMS of [F,P]:                                         0.00001320231004
 RMS of alpha difference density:                      0.00000192479043
 RMS of beta  difference density:                      0.00000180064859
 Gap [au]:  0.07546138
 ALPHA OCC:   5
 BETA  OCC:   3
 
 ***KOHN-SHAM ENERGY IN STEP   7 IS            -75.1088655486905878 [AU]
 ======================================================================
 ITERATION STEP   8
 CPU time [min]:     1.696                   Wall time [min]:     0.046
 
 Constructing alpha Fock-matrix...
 CPU time [min]:     1.709                   Wall time [min]:     0.046
 
 Calculating the exchange-correlation matrix...
           1.0000*MGGA_X_TPSS [au]:     -8.249997568325
           1.0000*MGGA_C_TPSS [au]:     -0.236632116004
 Exchange-correlation energy  [au]:     -8.486629684329
 CPU time [min]:     1.906                   Wall time [min]:     0.051
 
 Coulomb energy + HF exchange [au]:     36.602381532972
 Gradient norm:      1.2807E-03
 DIIS is running in this iteration step.
 RMS of [F,P]:                                         0.00001067936596
 RMS of alpha difference density:                      0.00000028302012
 RMS of beta  difference density:                      0.00000025362771
 Gap [au]:  0.07546280
 ALPHA OCC:   5
 BETA  OCC:   3
 
 ***KOHN-SHAM ENERGY IN STEP   8 IS            -75.1088656506795473 [AU]
 ======================================================================
 
 SUCCESS...
 THE SCF ITERATION HAS CONVERGED!
 
                   A   
 FINAL ALPHA OCC:   5
 FINAL BETA  OCC:   3
 
 ***FINAL KOHN-SHAM ENERGY:           -75.1088656506795473 [AU]
 
 Expectation value of S^2:  2.0035
 Average multiplicity:      3.0023
 
 Orbital energies [au]:
      Irrep         Alpha          Beta
    1   A        -19.030456     -18.976784
    2   A         -0.947852      -0.802785
    3   A         -0.405191      -0.289682
 
    4   A         -0.405171      -0.214219
    5   A         -0.325065      -0.214125
 
    6   A          0.149251       0.183111
    7   A          0.197764       0.221259
    8   A          0.201740       0.236484
    9   A          0.211504       0.238694
   10   A          0.290854       0.310394
   11   A          0.300611       0.323033
   12   A          0.350223       0.384351
   13   A          0.578121       0.614221
   14   A          0.879722       0.923625
   15   A          0.896306       0.937155
   16   A          0.914690       0.954738
   17   A          0.915255       0.961190
   18   A          0.981255       1.008536
   19   A          1.096930       1.168186
   20   A          1.154904       1.215747
   21   A          1.180967       1.237398
   22   A          1.245316       1.336644
   23   A          1.310954       1.371027
   24   A          1.344810       1.404577
   25   A          1.405453       1.429764
   26   A          1.405714       1.432800
   27   A          1.754522       1.812599
   28   A          1.821183       1.858015
   29   A          1.835575       1.867030
   30   A          2.065941       2.113850
   31   A          2.824876       2.913546
   32   A          2.895572       2.953504
   33   A          2.909380       2.959686
   34   A          2.931657       3.005782
   35   A          2.956296       3.007309
   36   A          2.956404       3.008491
   37   A          3.004363       3.063255
   38   A          3.005975       3.072794
   39   A          3.421312       3.522032
   40   A          3.455969       3.530431
   41   A          3.622278       3.647106
   42   A          3.622423       3.647112
   43   A          3.627688       3.734565
   44   A          3.629410       3.743573
   45   A          3.851761       3.940778
   46   A          3.955210       4.062474
   47   A          3.996516       4.069518
   48   A          4.065715       4.153305
   49   A          4.237199       4.277976
   50   A          4.237207       4.282960
   51   A          4.322582       4.422979
   52   A          4.571815       4.692434
   53   A          4.624735       4.700789
   54   A          5.036901       5.097818
   55   A          5.052847       5.100053
   56   A          5.053361       5.114320
   57   A          5.087235       5.114923
   58   A          5.087615       5.148169
   59   A          5.257836       5.288100
   60   A          5.738542       5.831726
   61   A          5.766598       5.832205
   62   A          7.306940       7.413240
   63   A          8.636390       8.710326
   64   A          8.636567       8.722465
   65   A          8.699371       8.793110
   66   A          8.699524       8.798502
   67   A          8.827348       8.948242
   68   A          8.827374       8.950900
   69   A          9.165974       9.260505
   70   A          9.202573       9.299259
   71   A          9.277315       9.382832
   72   A          9.944838       9.961111
   73   A          9.944891       9.961623
   74   A         10.133722      10.177572
   75   A         10.133888      10.177914
   76   A         10.747783      10.838486
   77   A         10.824996      11.058396
   78   A         10.825254      11.059799
   79   A         10.891852      11.073559
   80   A         10.892996      11.084092
   81   A         10.921358      11.085017
   82   A         10.962176      11.116050
   83   A         11.265648      11.367280
   84   A         11.267793      11.393968
   85   A         11.288625      11.408789
   86   A         11.588998      11.764826
   87   A         11.620138      11.835648
   88   A         11.673882      11.891412
   89   A         11.859233      12.085517
   90   A         11.859245      12.099490
   91   A         12.410216      12.523136
   92   A         12.423572      12.544636
   93   A         12.445298      12.581866
   94   A         13.350768      13.364108
   95   A         13.350879      13.364658
   96   A         13.476235      13.560758
   97   A         13.538987      13.561319
   98   A         13.539506      13.669790
   99   A         13.807560      13.872322
  100   A         13.824181      13.890788
  101   A         14.046801      14.071748
  102   A         14.052651      14.076026
  103   A         14.586568      14.608157
  104   A         15.702507      15.754621
  105   A         16.711566      16.718910
  106   A         16.711971      16.719513
  107   A         17.527837      17.545988
  108   A         17.533297      17.552086
  109   A         19.792696      19.817963
  110   A         30.917923      30.890771
  111   A         47.277852      47.432588
  112   A         89.826342      89.652169
  113   A        254.274433     254.376551
  114   A        411.297515     410.276538
 
 RETURNING FROM SCF ALGORITHM
 ======================================================================
 
 ************************ 2021-11-29 13:55:55 *************************
                      Normal termination of mrcc.
 **********************************************************************
