 **********************************************************************
                          MRCC program system
 **********************************************************************
 
                              Written by
 Mihaly Kallay, Peter R. Nagy, David Mester, Zoltan Rolik, Gyula Samu,
   Jozsef Csontos, Jozsef Csoka, P. Bernat Szabo, Laszlo Gyevi-Nagy,
    Bence Hegely, Istvan Ladjanszki, Lorant Szegedy, Bence Ladoczki,
       Klara Petrov, Mate Farkas, Pal D. Mezei, and Adam Ganyecz
 
        Department of Physical Chemistry and Materials Science
            Budapest University of Technology and Economics
                  Budapest P.O.Box 91, H-1521 Hungary
 
                              www.mrcc.hu
 
                    Release date: February 22, 2020

 ************************ 2021-11-04 23:08:50 *************************
 Executing minp...

 Reading input from MINP...
 
 Input file:
 
calc=LNO-CCSD(T)
scftype=rhf
verbosity=3
mem=470GB
symm=off
unit=angs
scfiguess=small
scfmaxit=1000
lcorthr=loose
scfalg=locfit1

ccmaxit=400
usedisk=0
ccsdalg=dfdirect
ccsdthreads=4
ccsdmkl=thr
ptthreads=4

charge=-26
core=24

basis=special
bse_AVDZ
bse_VDZ
bse_VDZ
bse_VDZ
bse_VDZ
bse_VDZ
bse_VDZ
bse_AVDZ
bse_AVDZ
bse_AVDZ
bse_AVDZ
bse_AVDZ
bse_AVDZ
bse_AVDZ
bse_AVDZ
bse_AVDZ
bse_AVDZ
bse_AVDZ
bse_AVDZ
bse_AVDZ
bse_AVDZ
bse_AVDZ
bse_AVDZ
bse_AVDZ
bse_AVDZ
nothing
nothing
nothing
nothing
nothing
nothing
nothing
nothing
nothing
nothing
nothing
nothing
nothing
nothing
nothing
nothing
nothing
nothing
nothing
nothing
nothing
nothing
nothing
nothing
nothing
nothing
nothing
nothing
nothing
nothing
nothing
nothing
nothing
nothing
nothing
nothing
nothing
nothing
nothing
nothing
nothing
nothing
nothing
nothing
nothing
nothing
nothing
nothing
nothing
nothing
nothing
nothing
nothing
nothing
nothing
nothing
nothing
nothing
nothing
nothing
nothing
nothing
nothing
nothing
nothing
nothing
nothing
nothing
nothing
nothing
nothing
nothing
nothing
nothing
nothing
nothing
nothing
nothing
nothing
nothing
nothing
nothing
nothing
nothing
nothing
nothing
nothing
nothing
nothing
nothing
nothing
nothing
nothing
nothing
nothing
nothing
nothing
nothing
nothing
nothing
nothing
nothing
nothing
nothing
nothing
nothing
nothing
nothing
nothing
nothing
nothing
nothing
nothing
nothing
nothing
nothing
nothing
nothing
nothing
nothing
nothing
nothing
nothing
nothing
nothing
nothing
nothing
nothing
nothing
nothing
nothing
nothing
nothing
nothing
nothing
nothing
nothing
nothing
nothing
nothing
nothing
nothing
nothing
nothing
nothing
nothing
nothing
nothing
nothing
nothing
nothing
nothing
nothing
nothing
nothing
nothing
nothing
nothing
nothing
nothing
nothing
nothing
nothing
nothing
nothing
nothing
nothing
nothing
nothing
nothing
nothing
nothing
nothing
nothing
nothing
nothing
nothing
nothing
nothing
nothing
nothing
nothing
nothing
nothing
nothing
nothing
nothing
nothing
nothing
nothing
nothing
nothing
nothing
nothing
nothing
nothing
nothing
nothing
nothing
nothing
nothing
nothing
nothing
nothing
nothing
nothing
nothing
nothing
nothing
nothing
nothing
nothing
nothing
nothing
nothing
nothing
nothing
nothing
nothing
nothing
nothing
nothing
nothing
nothing
nothing
nothing
nothing
nothing
nothing
nothing
nothing
nothing
nothing
nothing
nothing
nothing
nothing
nothing
nothing
nothing
nothing
nothing
nothing
nothing
nothing
nothing
nothing
nothing
nothing
nothing
nothing
nothing
nothing
nothing
nothing
nothing
nothing
nothing
nothing
nothing

basis_sm=special
STO-3G
STO-3G
STO-3G
STO-3G
STO-3G
STO-3G
STO-3G
STO-3G
STO-3G
STO-3G
STO-3G
STO-3G
STO-3G
STO-3G
STO-3G
STO-3G
STO-3G
STO-3G
STO-3G
STO-3G
STO-3G
STO-3G
STO-3G
STO-3G
STO-3G
nothing
nothing
nothing
nothing
nothing
nothing
nothing
nothing
nothing
nothing
nothing
nothing
nothing
nothing
nothing
nothing
nothing
nothing
nothing
nothing
nothing
nothing
nothing
nothing
nothing
nothing
nothing
nothing
nothing
nothing
nothing
nothing
nothing
nothing
nothing
nothing
nothing
nothing
nothing
nothing
nothing
nothing
nothing
nothing
nothing
nothing
nothing
nothing
nothing
nothing
nothing
nothing
nothing
nothing
nothing
nothing
nothing
nothing
nothing
nothing
nothing
nothing
nothing
nothing
nothing
nothing
nothing
nothing
nothing
nothing
nothing
nothing
nothing
nothing
nothing
nothing
nothing
nothing
nothing
nothing
nothing
nothing
nothing
nothing
nothing
nothing
nothing
nothing
nothing
nothing
nothing
nothing
nothing
nothing
nothing
nothing
nothing
nothing
nothing
nothing
nothing
nothing
nothing
nothing
nothing
nothing
nothing
nothing
nothing
nothing
nothing
nothing
nothing
nothing
nothing
nothing
nothing
nothing
nothing
nothing
nothing
nothing
nothing
nothing
nothing
nothing
nothing
nothing
nothing
nothing
nothing
nothing
nothing
nothing
nothing
nothing
nothing
nothing
nothing
nothing
nothing
nothing
nothing
nothing
nothing
nothing
nothing
nothing
nothing
nothing
nothing
nothing
nothing
nothing
nothing
nothing
nothing
nothing
nothing
nothing
nothing
nothing
nothing
nothing
nothing
nothing
nothing
nothing
nothing
nothing
nothing
nothing
nothing
nothing
nothing
nothing
nothing
nothing
nothing
nothing
nothing
nothing
nothing
nothing
nothing
nothing
nothing
nothing
nothing
nothing
nothing
nothing
nothing
nothing
nothing
nothing
nothing
nothing
nothing
nothing
nothing
nothing
nothing
nothing
nothing
nothing
nothing
nothing
nothing
nothing
nothing
nothing
nothing
nothing
nothing
nothing
nothing
nothing
nothing
nothing
nothing
nothing
nothing
nothing
nothing
nothing
nothing
nothing
nothing
nothing
nothing
nothing
nothing
nothing
nothing
nothing
nothing
nothing
nothing
nothing
nothing
nothing
nothing
nothing
nothing
nothing
nothing
nothing
nothing
nothing
nothing
nothing
nothing
nothing
nothing
nothing
nothing
nothing
nothing
nothing

dfbasis_scf=special
bse_AVDZ_autoaux
bse_VDZ_autoaux
bse_VDZ_autoaux
bse_VDZ_autoaux
bse_VDZ_autoaux
bse_VDZ_autoaux
bse_VDZ_autoaux
bse_AVDZ_autoaux
bse_AVDZ_autoaux
bse_AVDZ_autoaux
bse_AVDZ_autoaux
bse_AVDZ_autoaux
bse_AVDZ_autoaux
bse_AVDZ_autoaux
bse_AVDZ_autoaux
bse_AVDZ_autoaux
bse_AVDZ_autoaux
bse_AVDZ_autoaux
bse_AVDZ_autoaux
bse_AVDZ_autoaux
bse_AVDZ_autoaux
bse_AVDZ_autoaux
bse_AVDZ_autoaux
bse_AVDZ_autoaux
bse_AVDZ_autoaux
nothing
nothing
nothing
nothing
nothing
nothing
nothing
nothing
nothing
nothing
nothing
nothing
nothing
nothing
nothing
nothing
nothing
nothing
nothing
nothing
nothing
nothing
nothing
nothing
nothing
nothing
nothing
nothing
nothing
nothing
nothing
nothing
nothing
nothing
nothing
nothing
nothing
nothing
nothing
nothing
nothing
nothing
nothing
nothing
nothing
nothing
nothing
nothing
nothing
nothing
nothing
nothing
nothing
nothing
nothing
nothing
nothing
nothing
nothing
nothing
nothing
nothing
nothing
nothing
nothing
nothing
nothing
nothing
nothing
nothing
nothing
nothing
nothing
nothing
nothing
nothing
nothing
nothing
nothing
nothing
nothing
nothing
nothing
nothing
nothing
nothing
nothing
nothing
nothing
nothing
nothing
nothing
nothing
nothing
nothing
nothing
nothing
nothing
nothing
nothing
nothing
nothing
nothing
nothing
nothing
nothing
nothing
nothing
nothing
nothing
nothing
nothing
nothing
nothing
nothing
nothing
nothing
nothing
nothing
nothing
nothing
nothing
nothing
nothing
nothing
nothing
nothing
nothing
nothing
nothing
nothing
nothing
nothing
nothing
nothing
nothing
nothing
nothing
nothing
nothing
nothing
nothing
nothing
nothing
nothing
nothing
nothing
nothing
nothing
nothing
nothing
nothing
nothing
nothing
nothing
nothing
nothing
nothing
nothing
nothing
nothing
nothing
nothing
nothing
nothing
nothing
nothing
nothing
nothing
nothing
nothing
nothing
nothing
nothing
nothing
nothing
nothing
nothing
nothing
nothing
nothing
nothing
nothing
nothing
nothing
nothing
nothing
nothing
nothing
nothing
nothing
nothing
nothing
nothing
nothing
nothing
nothing
nothing
nothing
nothing
nothing
nothing
nothing
nothing
nothing
nothing
nothing
nothing
nothing
nothing
nothing
nothing
nothing
nothing
nothing
nothing
nothing
nothing
nothing
nothing
nothing
nothing
nothing
nothing
nothing
nothing
nothing
nothing
nothing
nothing
nothing
nothing
nothing
nothing
nothing
nothing
nothing
nothing
nothing
nothing
nothing
nothing
nothing
nothing
nothing
nothing
nothing
nothing
nothing
nothing
nothing
nothing
nothing
nothing
nothing
nothing
nothing
nothing
nothing
nothing

dfbasis_cor=special
bse_AVDZ_autoaux
bse_VDZ_autoaux
bse_VDZ_autoaux
bse_VDZ_autoaux
bse_VDZ_autoaux
bse_VDZ_autoaux
bse_VDZ_autoaux
bse_AVDZ_autoaux
bse_AVDZ_autoaux
bse_AVDZ_autoaux
bse_AVDZ_autoaux
bse_AVDZ_autoaux
bse_AVDZ_autoaux
bse_AVDZ_autoaux
bse_AVDZ_autoaux
bse_AVDZ_autoaux
bse_AVDZ_autoaux
bse_AVDZ_autoaux
bse_AVDZ_autoaux
bse_AVDZ_autoaux
bse_AVDZ_autoaux
bse_AVDZ_autoaux
bse_AVDZ_autoaux
bse_AVDZ_autoaux
bse_AVDZ_autoaux
nothing
nothing
nothing
nothing
nothing
nothing
nothing
nothing
nothing
nothing
nothing
nothing
nothing
nothing
nothing
nothing
nothing
nothing
nothing
nothing
nothing
nothing
nothing
nothing
nothing
nothing
nothing
nothing
nothing
nothing
nothing
nothing
nothing
nothing
nothing
nothing
nothing
nothing
nothing
nothing
nothing
nothing
nothing
nothing
nothing
nothing
nothing
nothing
nothing
nothing
nothing
nothing
nothing
nothing
nothing
nothing
nothing
nothing
nothing
nothing
nothing
nothing
nothing
nothing
nothing
nothing
nothing
nothing
nothing
nothing
nothing
nothing
nothing
nothing
nothing
nothing
nothing
nothing
nothing
nothing
nothing
nothing
nothing
nothing
nothing
nothing
nothing
nothing
nothing
nothing
nothing
nothing
nothing
nothing
nothing
nothing
nothing
nothing
nothing
nothing
nothing
nothing
nothing
nothing
nothing
nothing
nothing
nothing
nothing
nothing
nothing
nothing
nothing
nothing
nothing
nothing
nothing
nothing
nothing
nothing
nothing
nothing
nothing
nothing
nothing
nothing
nothing
nothing
nothing
nothing
nothing
nothing
nothing
nothing
nothing
nothing
nothing
nothing
nothing
nothing
nothing
nothing
nothing
nothing
nothing
nothing
nothing
nothing
nothing
nothing
nothing
nothing
nothing
nothing
nothing
nothing
nothing
nothing
nothing
nothing
nothing
nothing
nothing
nothing
nothing
nothing
nothing
nothing
nothing
nothing
nothing
nothing
nothing
nothing
nothing
nothing
nothing
nothing
nothing
nothing
nothing
nothing
nothing
nothing
nothing
nothing
nothing
nothing
nothing
nothing
nothing
nothing
nothing
nothing
nothing
nothing
nothing
nothing
nothing
nothing
nothing
nothing
nothing
nothing
nothing
nothing
nothing
nothing
nothing
nothing
nothing
nothing
nothing
nothing
nothing
nothing
nothing
nothing
nothing
nothing
nothing
nothing
nothing
nothing
nothing
nothing
nothing
nothing
nothing
nothing
nothing
nothing
nothing
nothing
nothing
nothing
nothing
nothing
nothing
nothing
nothing
nothing
nothing
nothing
nothing
nothing
nothing
nothing
nothing
nothing
nothing
nothing
nothing
nothing
nothing
nothing
nothing
nothing
nothing
nothing

ecp=special
none
none
none
none
none
none
none
none
none
none
none
none
none
none
none
none
none
none
none
none
none
none
none
none
none
ECP-12
ECP-12
ECP-12
ECP-12
ECP-12
ECP-12
ECP-12
ECP-12
ECP-12
ECP-12
ECP-12
ECP-12
ECP-12
ECP-12
ECP-12
ECP-12
ECP-12
ECP-12
ECP-12
ECP-12
ECP-12
ECP-12
ECP-12
ECP-12
ECP-12
ECP-12
ECP-12
ECP-12
ECP-12
ECP-12
ECP-12
ECP-12
ECP-12
ECP-12
ECP-12
ECP-12
ECP-12
ECP-12
ECP-12
ECP-12
ECP-12
ECP-12
ECP-12
ECP-12
ECP-12
ECP-12
ECP-12
ECP-12
ECP-12
ECP-12
ECP-12
ECP-12
ECP-12
ECP-12
ECP-12
ECP-12
ECP-12
ECP-12
ECP-12
ECP-12
ECP-12
ECP-12
ECP-12
ECP-12
ECP-12
ECP-12
ECP-12
ECP-12
ECP-12
ECP-12
ECP-12
ECP-12
ECP-12
ECP-12
ECP-12
ECP-12
ECP-12
ECP-12
ECP-12
ECP-12
ECP-12
ECP-12
ECP-12
ECP-12
ECP-12
ECP-12
ECP-12
ECP-12
ECP-12
ECP-12
ECP-12
ECP-12
ECP-12
ECP-12
ECP-12
ECP-12
ECP-12
ECP-12
ECP-12
ECP-12
ECP-12
ECP-12
ECP-12
ECP-12
ECP-12
ECP-12
ECP-12
ECP-12
ECP-12
ECP-12
ECP-12
ECP-12
ECP-12
ECP-12
ECP-12
ECP-12
ECP-12
ECP-12
ECP-12
ECP-12
ECP-12
ECP-12
ECP-12
ECP-12
ECP-12
ECP-12
ECP-12
ECP-12
ECP-12
ECP-12
ECP-12
ECP-12
ECP-12
ECP-12
ECP-12
ECP-12
ECP-12
ECP-12
ECP-12
ECP-12
ECP-12
ECP-12
ECP-12
ECP-12
ECP-12
ECP-12
ECP-12
ECP-12
ECP-12
ECP-12
ECP-12
ECP-12
ECP-12
ECP-12
ECP-12
ECP-12
ECP-12
ECP-12
ECP-12
ECP-12
ECP-12
ECP-12
ECP-12
ECP-12
ECP-12
ECP-12
ECP-12
ECP-12
ECP-12
ECP-12
ECP-12
ECP-12
ECP-12
ECP-12
ECP-12
ECP-12
ECP-12
ECP-12
ECP-12
ECP-12
ECP-12
ECP-12
ECP-12
ECP-12
ECP-12
ECP-12
ECP-12
ECP-12
ECP-12
ECP-12
ECP-12
ECP-12
ECP-12
ECP-12
ECP-12
ECP-12
ECP-12
ECP-12
ECP-12
ECP-12
ECP-12
ECP-12
ECP-12
ECP-12
ECP-12
ECP-12
ECP-12
ECP-12
ECP-12
ECP-12
ECP-12
ECP-12
ECP-12
ECP-12
ECP-12
ECP-12
ECP-12
ECP-12
ECP-12
ECP-12
ECP-12
ECP-12
ECP-12
ECP-12
ECP-12
ECP-12
ECP-12
ECP-12
ECP-12
ECP-12
ECP-12
ECP-12
ECP-12
ECP-12
ECP-12
ECP-12
ECP-12
ECP-12
ECP-12
ECP-12
ECP-12
ECP-12
ECP-12
ECP-12
ECP-12
ECP-12
ECP-12
ECP-12
ECP-12
ECP-12
ECP-12
ECP-12
ECP-12
ECP-12
ECP-12
ECP-12
ECP-12
ECP-12
ECP-12
ECP-12

unit=angs
geom=xyz
285

O     0.00000000000    0.00000000000    0.00000000000
Mg    0.00000000000    0.00000000000    2.10322906414
Mg   -2.10322906414    0.00000000000    0.00000000000
Mg    0.00000000000    2.10322906414    0.00000000000
Mg    2.10322906414    0.00000000000    0.00000000000
Mg    0.00000000000   -2.10322906414    0.00000000000
Mg    0.00000000000    0.00000000000   -2.10322906414
O    -2.10322906414    0.00000000000    2.10322906414
O     0.00000000000    2.10322906414    2.10322906414
O     2.10322906414    0.00000000000    2.10322906414
O     0.00000000000   -2.10322906414    2.10322906414
O    -2.10322906414    2.10322906414    0.00000000000
O     2.10322906414    2.10322906414    0.00000000000
O     2.10322906414   -2.10322906414    0.00000000000
O    -2.10322906414   -2.10322906414    0.00000000000
O    -2.10322906414    0.00000000000   -2.10322906414
O     0.00000000000    2.10322906414   -2.10322906414
O     2.10322906414    0.00000000000   -2.10322906414
O     0.00000000000   -2.10322906414   -2.10322906414
O     0.00000000000    0.00000000000    4.20645812828
O    -4.20645812828    0.00000000000    0.00000000000
O     0.00000000000    4.20645812828    0.00000000000
O     4.20645812828    0.00000000000    0.00000000000
O     0.00000000000   -4.20645812828    0.00000000000
O     0.00000000000    0.00000000000   -4.20645812828
Mg   -2.10322906414    2.10322906414    2.10322906414
Mg    2.10322906414    2.10322906414    2.10322906414
Mg    2.10322906414   -2.10322906414    2.10322906414
Mg   -2.10322906414   -2.10322906414    2.10322906414
Mg   -2.10322906414    2.10322906414   -2.10322906414
Mg    2.10322906414    2.10322906414   -2.10322906414
Mg    2.10322906414   -2.10322906414   -2.10322906414
Mg   -2.10322906414   -2.10322906414   -2.10322906414
Mg   -2.10322906414    0.00000000000    4.20645812828
Mg    0.00000000000    2.10322906414    4.20645812828
Mg    2.10322906414    0.00000000000    4.20645812828
Mg    0.00000000000   -2.10322906414    4.20645812828
Mg   -4.20645812828    0.00000000000    2.10322906414
Mg    0.00000000000    4.20645812828    2.10322906414
Mg    4.20645812828    0.00000000000    2.10322906414
Mg    0.00000000000   -4.20645812828    2.10322906414
Mg   -4.20645812828    2.10322906414    0.00000000000
Mg   -2.10322906414    4.20645812828    0.00000000000
Mg    2.10322906414    4.20645812828    0.00000000000
Mg    4.20645812828    2.10322906414    0.00000000000
Mg    4.20645812828   -2.10322906414    0.00000000000
Mg    2.10322906414   -4.20645812828    0.00000000000
Mg   -2.10322906414   -4.20645812828    0.00000000000
Mg   -4.20645812828   -2.10322906414    0.00000000000
Mg   -4.20645812828    0.00000000000   -2.10322906414
Mg    0.00000000000    4.20645812828   -2.10322906414
Mg    4.20645812828    0.00000000000   -2.10322906414
Mg    0.00000000000   -4.20645812828   -2.10322906414
Mg   -2.10322906414    0.00000000000   -4.20645812828
Mg    0.00000000000    2.10322906414   -4.20645812828
Mg    2.10322906414    0.00000000000   -4.20645812828
Mg    0.00000000000   -2.10322906414   -4.20645812828
Mg    0.00000000000    0.00000000000    6.30968719243
Mg   -4.20645812828    2.10322906414    4.20645812828
Mg   -2.10322906414    4.20645812828    4.20645812828
Mg    2.10322906414    4.20645812828    4.20645812828
Mg    4.20645812828    2.10322906414    4.20645812828
Mg    4.20645812828   -2.10322906414    4.20645812828
Mg    2.10322906414   -4.20645812828    4.20645812828
Mg   -2.10322906414   -4.20645812828    4.20645812828
Mg   -4.20645812828   -2.10322906414    4.20645812828
Mg   -4.20645812828    4.20645812828    2.10322906414
Mg    4.20645812828    4.20645812828    2.10322906414
Mg    4.20645812828   -4.20645812828    2.10322906414
Mg   -4.20645812828   -4.20645812828    2.10322906414
Mg   -6.30968719243    0.00000000000    0.00000000000
Mg    0.00000000000    6.30968719243    0.00000000000
Mg    6.30968719243    0.00000000000    0.00000000000
Mg    0.00000000000   -6.30968719243    0.00000000000
Mg   -4.20645812828    4.20645812828   -2.10322906414
Mg    4.20645812828    4.20645812828   -2.10322906414
Mg    4.20645812828   -4.20645812828   -2.10322906414
Mg   -4.20645812828   -4.20645812828   -2.10322906414
Mg   -4.20645812828    2.10322906414   -4.20645812828
Mg   -2.10322906414    4.20645812828   -4.20645812828
Mg    2.10322906414    4.20645812828   -4.20645812828
Mg    4.20645812828    2.10322906414   -4.20645812828
Mg    4.20645812828   -2.10322906414   -4.20645812828
Mg    2.10322906414   -4.20645812828   -4.20645812828
Mg   -2.10322906414   -4.20645812828   -4.20645812828
Mg   -4.20645812828   -2.10322906414   -4.20645812828
Mg    0.00000000000    0.00000000000   -6.30968719243
Mg   -2.10322906414    2.10322906414    6.30968719243
Mg    2.10322906414    2.10322906414    6.30968719243
Mg    2.10322906414   -2.10322906414    6.30968719243
Mg   -2.10322906414   -2.10322906414    6.30968719243
Mg   -6.30968719243    2.10322906414    2.10322906414
Mg   -2.10322906414    6.30968719243    2.10322906414
Mg    2.10322906414    6.30968719243    2.10322906414
Mg    6.30968719243    2.10322906414    2.10322906414
Mg    6.30968719243   -2.10322906414    2.10322906414
Mg    2.10322906414   -6.30968719243    2.10322906414
Mg   -2.10322906414   -6.30968719243    2.10322906414
Mg   -6.30968719243   -2.10322906414    2.10322906414
Mg   -6.30968719243    2.10322906414   -2.10322906414
Mg   -2.10322906414    6.30968719243   -2.10322906414
Mg    2.10322906414    6.30968719243   -2.10322906414
Mg    6.30968719243    2.10322906414   -2.10322906414
Mg    6.30968719243   -2.10322906414   -2.10322906414
Mg    2.10322906414   -6.30968719243   -2.10322906414
Mg   -2.10322906414   -6.30968719243   -2.10322906414
Mg   -6.30968719243   -2.10322906414   -2.10322906414
Mg   -2.10322906414    2.10322906414   -6.30968719243
Mg    2.10322906414    2.10322906414   -6.30968719243
Mg    2.10322906414   -2.10322906414   -6.30968719243
Mg   -2.10322906414   -2.10322906414   -6.30968719243
Mg   -4.20645812828    0.00000000000    6.30968719243
Mg    0.00000000000    4.20645812828    6.30968719243
Mg    4.20645812828    0.00000000000    6.30968719243
Mg    0.00000000000   -4.20645812828    6.30968719243
Mg   -6.30968719243    0.00000000000    4.20645812828
Mg    0.00000000000    6.30968719243    4.20645812828
Mg    6.30968719243    0.00000000000    4.20645812828
Mg    0.00000000000   -6.30968719243    4.20645812828
Mg   -6.30968719243    4.20645812828    0.00000000000
Mg   -4.20645812828    6.30968719243    0.00000000000
Mg    4.20645812828    6.30968719243    0.00000000000
Mg    6.30968719243    4.20645812828    0.00000000000
Mg    6.30968719243   -4.20645812828    0.00000000000
Mg    4.20645812828   -6.30968719243    0.00000000000
Mg   -4.20645812828   -6.30968719243    0.00000000000
Mg   -6.30968719243   -4.20645812828    0.00000000000
Mg   -6.30968719243    0.00000000000   -4.20645812828
Mg    0.00000000000    6.30968719243   -4.20645812828
Mg    6.30968719243    0.00000000000   -4.20645812828
Mg    0.00000000000   -6.30968719243   -4.20645812828
Mg   -4.20645812828    0.00000000000   -6.30968719243
Mg    0.00000000000    4.20645812828   -6.30968719243
Mg    4.20645812828    0.00000000000   -6.30968719243
Mg    0.00000000000   -4.20645812828   -6.30968719243
Mg   -2.10322906414    0.00000000000    8.41291625657
Mg    0.00000000000    2.10322906414    8.41291625657
Mg    2.10322906414    0.00000000000    8.41291625657
Mg    0.00000000000   -2.10322906414    8.41291625657
Mg   -4.20645812828    4.20645812828    6.30968719243
Mg    4.20645812828    4.20645812828    6.30968719243
Mg    4.20645812828   -4.20645812828    6.30968719243
Mg   -4.20645812828   -4.20645812828    6.30968719243
Mg   -6.30968719243    4.20645812828    4.20645812828
Mg   -4.20645812828    6.30968719243    4.20645812828
Mg    4.20645812828    6.30968719243    4.20645812828
Mg    6.30968719243    4.20645812828    4.20645812828
Mg    6.30968719243   -4.20645812828    4.20645812828
Mg    4.20645812828   -6.30968719243    4.20645812828
Mg   -4.20645812828   -6.30968719243    4.20645812828
Mg   -6.30968719243   -4.20645812828    4.20645812828
Mg   -8.41291625657    0.00000000000    2.10322906414
Mg    0.00000000000    8.41291625657    2.10322906414
Mg    8.41291625657    0.00000000000    2.10322906414
Mg    0.00000000000   -8.41291625657    2.10322906414
Mg   -8.41291625657    2.10322906414    0.00000000000
Mg   -2.10322906414    8.41291625657    0.00000000000
Mg    2.10322906414    8.41291625657    0.00000000000
Mg    8.41291625657    2.10322906414    0.00000000000
Mg    8.41291625657   -2.10322906414    0.00000000000
Mg    2.10322906414   -8.41291625657    0.00000000000
Mg   -2.10322906414   -8.41291625657    0.00000000000
Mg   -8.41291625657   -2.10322906414    0.00000000000
Mg   -8.41291625657    0.00000000000   -2.10322906414
Mg    0.00000000000    8.41291625657   -2.10322906414
Mg    8.41291625657    0.00000000000   -2.10322906414
Mg    0.00000000000   -8.41291625657   -2.10322906414
Mg   -6.30968719243    4.20645812828   -4.20645812828
Mg   -4.20645812828    6.30968719243   -4.20645812828
Mg    4.20645812828    6.30968719243   -4.20645812828
Mg    6.30968719243    4.20645812828   -4.20645812828
Mg    6.30968719243   -4.20645812828   -4.20645812828
Mg    4.20645812828   -6.30968719243   -4.20645812828
Mg   -4.20645812828   -6.30968719243   -4.20645812828
Mg   -6.30968719243   -4.20645812828   -4.20645812828
Mg   -4.20645812828    4.20645812828   -6.30968719243
Mg    4.20645812828    4.20645812828   -6.30968719243
Mg    4.20645812828   -4.20645812828   -6.30968719243
Mg   -4.20645812828   -4.20645812828   -6.30968719243
Mg   -2.10322906414    0.00000000000   -8.41291625657
Mg    0.00000000000    2.10322906414   -8.41291625657
Mg    2.10322906414    0.00000000000   -8.41291625657
Mg    0.00000000000   -2.10322906414   -8.41291625657
Mg   -6.30968719243    2.10322906414    6.30968719243
Mg   -2.10322906414    6.30968719243    6.30968719243
Mg    2.10322906414    6.30968719243    6.30968719243
Mg    6.30968719243    2.10322906414    6.30968719243
Mg    6.30968719243   -2.10322906414    6.30968719243
Mg    2.10322906414   -6.30968719243    6.30968719243
Mg   -2.10322906414   -6.30968719243    6.30968719243
Mg   -6.30968719243   -2.10322906414    6.30968719243
Mg   -6.30968719243    6.30968719243    2.10322906414
Mg    6.30968719243    6.30968719243    2.10322906414
Mg    6.30968719243   -6.30968719243    2.10322906414
Mg   -6.30968719243   -6.30968719243    2.10322906414
Mg   -6.30968719243    6.30968719243   -2.10322906414
Mg    6.30968719243    6.30968719243   -2.10322906414
Mg    6.30968719243   -6.30968719243   -2.10322906414
Mg   -6.30968719243   -6.30968719243   -2.10322906414
Mg   -6.30968719243    2.10322906414   -6.30968719243
Mg   -2.10322906414    6.30968719243   -6.30968719243
Mg    2.10322906414    6.30968719243   -6.30968719243
Mg    6.30968719243    2.10322906414   -6.30968719243
Mg    6.30968719243   -2.10322906414   -6.30968719243
Mg    2.10322906414   -6.30968719243   -6.30968719243
Mg   -2.10322906414   -6.30968719243   -6.30968719243
Mg   -6.30968719243   -2.10322906414   -6.30968719243
Mg   -4.20645812828    2.10322906414    8.41291625657
Mg   -2.10322906414    4.20645812828    8.41291625657
Mg    2.10322906414    4.20645812828    8.41291625657
Mg    4.20645812828    2.10322906414    8.41291625657
Mg    4.20645812828   -2.10322906414    8.41291625657
Mg    2.10322906414   -4.20645812828    8.41291625657
Mg   -2.10322906414   -4.20645812828    8.41291625657
Mg   -4.20645812828   -2.10322906414    8.41291625657
Mg   -8.41291625657    2.10322906414    4.20645812828
Mg   -2.10322906414    8.41291625657    4.20645812828
Mg    2.10322906414    8.41291625657    4.20645812828
Mg    8.41291625657    2.10322906414    4.20645812828
Mg    8.41291625657   -2.10322906414    4.20645812828
Mg    2.10322906414   -8.41291625657    4.20645812828
Mg   -2.10322906414   -8.41291625657    4.20645812828
Mg   -8.41291625657   -2.10322906414    4.20645812828
Mg   -8.41291625657    4.20645812828    2.10322906414
Mg   -4.20645812828    8.41291625657    2.10322906414
Mg    4.20645812828    8.41291625657    2.10322906414
Mg    8.41291625657    4.20645812828    2.10322906414
Mg    8.41291625657   -4.20645812828    2.10322906414
Mg    4.20645812828   -8.41291625657    2.10322906414
Mg   -4.20645812828   -8.41291625657    2.10322906414
Mg   -8.41291625657   -4.20645812828    2.10322906414
Mg   -8.41291625657    4.20645812828   -2.10322906414
Mg   -4.20645812828    8.41291625657   -2.10322906414
Mg    4.20645812828    8.41291625657   -2.10322906414
Mg    8.41291625657    4.20645812828   -2.10322906414
Mg    8.41291625657   -4.20645812828   -2.10322906414
Mg    4.20645812828   -8.41291625657   -2.10322906414
Mg   -4.20645812828   -8.41291625657   -2.10322906414
Mg   -8.41291625657   -4.20645812828   -2.10322906414
Mg   -8.41291625657    2.10322906414   -4.20645812828
Mg   -2.10322906414    8.41291625657   -4.20645812828
Mg    2.10322906414    8.41291625657   -4.20645812828
Mg    8.41291625657    2.10322906414   -4.20645812828
Mg    8.41291625657   -2.10322906414   -4.20645812828
Mg    2.10322906414   -8.41291625657   -4.20645812828
Mg   -2.10322906414   -8.41291625657   -4.20645812828
Mg   -8.41291625657   -2.10322906414   -4.20645812828
Mg   -4.20645812828    2.10322906414   -8.41291625657
Mg   -2.10322906414    4.20645812828   -8.41291625657
Mg    2.10322906414    4.20645812828   -8.41291625657
Mg    4.20645812828    2.10322906414   -8.41291625657
Mg    4.20645812828   -2.10322906414   -8.41291625657
Mg    2.10322906414   -4.20645812828   -8.41291625657
Mg   -2.10322906414   -4.20645812828   -8.41291625657
Mg   -4.20645812828   -2.10322906414   -8.41291625657
Mg    0.00000000000    0.00000000000   10.51614532071
Mg  -10.51614532071    0.00000000000    0.00000000000
Mg    0.00000000000   10.51614532071    0.00000000000
Mg   10.51614532071    0.00000000000    0.00000000000
Mg    0.00000000000  -10.51614532071    0.00000000000
Mg    0.00000000000    0.00000000000  -10.51614532071
Mg   -2.10322906414    2.10322906414   10.51614532071
Mg    2.10322906414    2.10322906414   10.51614532071
Mg    2.10322906414   -2.10322906414   10.51614532071
Mg   -2.10322906414   -2.10322906414   10.51614532071
Mg  -10.51614532071    2.10322906414    2.10322906414
Mg   -2.10322906414   10.51614532071    2.10322906414
Mg    2.10322906414   10.51614532071    2.10322906414
Mg   10.51614532071    2.10322906414    2.10322906414
Mg   10.51614532071   -2.10322906414    2.10322906414
Mg    2.10322906414  -10.51614532071    2.10322906414
Mg   -2.10322906414  -10.51614532071    2.10322906414
Mg  -10.51614532071   -2.10322906414    2.10322906414
Mg  -10.51614532071    2.10322906414   -2.10322906414
Mg   -2.10322906414   10.51614532071   -2.10322906414
Mg    2.10322906414   10.51614532071   -2.10322906414
Mg   10.51614532071    2.10322906414   -2.10322906414
Mg   10.51614532071   -2.10322906414   -2.10322906414
Mg    2.10322906414  -10.51614532071   -2.10322906414
Mg   -2.10322906414  -10.51614532071   -2.10322906414
Mg  -10.51614532071   -2.10322906414   -2.10322906414
Mg   -2.10322906414    2.10322906414  -10.51614532071
Mg    2.10322906414    2.10322906414  -10.51614532071
Mg    2.10322906414   -2.10322906414  -10.51614532071
Mg   -2.10322906414   -2.10322906414  -10.51614532071

ghost=serialno
1

qmmm=Amber
pointcharges
12124
     -2.10322906414    2.10322906414    2.10322906414    2.00000000000
      2.10322906414    2.10322906414    2.10322906414    2.00000000000
      2.10322906414   -2.10322906414    2.10322906414    2.00000000000
     -2.10322906414   -2.10322906414    2.10322906414    2.00000000000
     -2.10322906414    2.10322906414   -2.10322906414    2.00000000000
      2.10322906414    2.10322906414   -2.10322906414    2.00000000000
      2.10322906414   -2.10322906414   -2.10322906414    2.00000000000
     -2.10322906414   -2.10322906414   -2.10322906414    2.00000000000
     -2.10322906414    0.00000000000    4.20645812828    2.00000000000
      0.00000000000    2.10322906414    4.20645812828    2.00000000000
      2.10322906414    0.00000000000    4.20645812828    2.00000000000
      0.00000000000   -2.10322906414    4.20645812828    2.00000000000
     -4.20645812828    0.00000000000    2.10322906414    2.00000000000
      0.00000000000    4.20645812828    2.10322906414    2.00000000000
      4.20645812828    0.00000000000    2.10322906414    2.00000000000
      0.00000000000   -4.20645812828    2.10322906414    2.00000000000
     -4.20645812828    2.10322906414    0.00000000000    2.00000000000
     -2.10322906414    4.20645812828    0.00000000000    2.00000000000
      2.10322906414    4.20645812828    0.00000000000    2.00000000000
      4.20645812828    2.10322906414    0.00000000000    2.00000000000
      4.20645812828   -2.10322906414    0.00000000000    2.00000000000
      2.10322906414   -4.20645812828    0.00000000000    2.00000000000
     -2.10322906414   -4.20645812828    0.00000000000    2.00000000000
     -4.20645812828   -2.10322906414    0.00000000000    2.00000000000
     -4.20645812828    0.00000000000   -2.10322906414    2.00000000000
      0.00000000000    4.20645812828   -2.10322906414    2.00000000000
      4.20645812828    0.00000000000   -2.10322906414    2.00000000000
      0.00000000000   -4.20645812828   -2.10322906414    2.00000000000
     -2.10322906414    0.00000000000   -4.20645812828    2.00000000000
      0.00000000000    2.10322906414   -4.20645812828    2.00000000000
      2.10322906414    0.00000000000   -4.20645812828    2.00000000000
      0.00000000000   -2.10322906414   -4.20645812828    2.00000000000
     -2.10322906414    2.10322906414    4.20645812828   -2.00000000000
      2.10322906414    2.10322906414    4.20645812828   -2.00000000000
      2.10322906414   -2.10322906414    4.20645812828   -2.00000000000
     -2.10322906414   -2.10322906414    4.20645812828   -2.00000000000
     -4.20645812828    2.10322906414    2.10322906414   -2.00000000000
     -2.10322906414    4.20645812828    2.10322906414   -2.00000000000
      2.10322906414    4.20645812828    2.10322906414   -2.00000000000
      4.20645812828    2.10322906414    2.10322906414   -2.00000000000
      4.20645812828   -2.10322906414    2.10322906414   -2.00000000000
      2.10322906414   -4.20645812828    2.10322906414   -2.00000000000
     -2.10322906414   -4.20645812828    2.10322906414   -2.00000000000
     -4.20645812828   -2.10322906414    2.10322906414   -2.00000000000
     -4.20645812828    2.10322906414   -2.10322906414   -2.00000000000
     -2.10322906414    4.20645812828   -2.10322906414   -2.00000000000
      2.10322906414    4.20645812828   -2.10322906414   -2.00000000000
      4.20645812828    2.10322906414   -2.10322906414   -2.00000000000
      4.20645812828   -2.10322906414   -2.10322906414   -2.00000000000
      2.10322906414   -4.20645812828   -2.10322906414   -2.00000000000
     -2.10322906414   -4.20645812828   -2.10322906414   -2.00000000000
     -4.20645812828   -2.10322906414   -2.10322906414   -2.00000000000
     -2.10322906414    2.10322906414   -4.20645812828   -2.00000000000
      2.10322906414    2.10322906414   -4.20645812828   -2.00000000000
      2.10322906414   -2.10322906414   -4.20645812828   -2.00000000000
     -2.10322906414   -2.10322906414   -4.20645812828   -2.00000000000
     -4.20645812828    0.00000000000    4.20645812828   -2.00000000000
      0.00000000000    4.20645812828    4.20645812828   -2.00000000000
      4.20645812828    0.00000000000    4.20645812828   -2.00000000000
      0.00000000000   -4.20645812828    4.20645812828   -2.00000000000
     -4.20645812828    4.20645812828    0.00000000000   -2.00000000000
      4.20645812828    4.20645812828    0.00000000000   -2.00000000000
      4.20645812828   -4.20645812828    0.00000000000   -2.00000000000
     -4.20645812828   -4.20645812828    0.00000000000   -2.00000000000
     -4.20645812828    0.00000000000   -4.20645812828   -2.00000000000
      0.00000000000    4.20645812828   -4.20645812828   -2.00000000000
      4.20645812828    0.00000000000   -4.20645812828   -2.00000000000
      0.00000000000   -4.20645812828   -4.20645812828   -2.00000000000
      0.00000000000    0.00000000000    6.30968719243    2.00000000000
     -4.20645812828    2.10322906414    4.20645812828    2.00000000000
     -2.10322906414    4.20645812828    4.20645812828    2.00000000000
      2.10322906414    4.20645812828    4.20645812828    2.00000000000
      4.20645812828    2.10322906414    4.20645812828    2.00000000000
      4.20645812828   -2.10322906414    4.20645812828    2.00000000000
      2.10322906414   -4.20645812828    4.20645812828    2.00000000000
     -2.10322906414   -4.20645812828    4.20645812828    2.00000000000
     -4.20645812828   -2.10322906414    4.20645812828    2.00000000000
     -4.20645812828    4.20645812828    2.10322906414    2.00000000000
      4.20645812828    4.20645812828    2.10322906414    2.00000000000
      4.20645812828   -4.20645812828    2.10322906414    2.00000000000
     -4.20645812828   -4.20645812828    2.10322906414    2.00000000000
     -6.30968719243    0.00000000000    0.00000000000    2.00000000000
      0.00000000000    6.30968719243    0.00000000000    2.00000000000
      6.30968719243    0.00000000000    0.00000000000    2.00000000000
      0.00000000000   -6.30968719243    0.00000000000    2.00000000000
     -4.20645812828    4.20645812828   -2.10322906414    2.00000000000
      4.20645812828    4.20645812828   -2.10322906414    2.00000000000
      4.20645812828   -4.20645812828   -2.10322906414    2.00000000000
     -4.20645812828   -4.20645812828   -2.10322906414    2.00000000000
     -4.20645812828    2.10322906414   -4.20645812828    2.00000000000
     -2.10322906414    4.20645812828   -4.20645812828    2.00000000000
      2.10322906414    4.20645812828   -4.20645812828    2.00000000000
      4.20645812828    2.10322906414   -4.20645812828    2.00000000000
      4.20645812828   -2.10322906414   -4.20645812828    2.00000000000
      2.10322906414   -4.20645812828   -4.20645812828    2.00000000000
     -2.10322906414   -4.20645812828   -4.20645812828    2.00000000000
     -4.20645812828   -2.10322906414   -4.20645812828    2.00000000000
      0.00000000000    0.00000000000   -6.30968719243    2.00000000000
     -2.10322906414    0.00000000000    6.30968719243   -2.00000000000
      0.00000000000    2.10322906414    6.30968719243   -2.00000000000
      2.10322906414    0.00000000000    6.30968719243   -2.00000000000
      0.00000000000   -2.10322906414    6.30968719243   -2.00000000000
     -6.30968719243    0.00000000000    2.10322906414   -2.00000000000
      0.00000000000    6.30968719243    2.10322906414   -2.00000000000
      6.30968719243    0.00000000000    2.10322906414   -2.00000000000
      0.00000000000   -6.30968719243    2.10322906414   -2.00000000000
     -6.30968719243    2.10322906414    0.00000000000   -2.00000000000
     -2.10322906414    6.30968719243    0.00000000000   -2.00000000000
      2.10322906414    6.30968719243    0.00000000000   -2.00000000000
      6.30968719243    2.10322906414    0.00000000000   -2.00000000000
      6.30968719243   -2.10322906414    0.00000000000   -2.00000000000
      2.10322906414   -6.30968719243    0.00000000000   -2.00000000000
     -2.10322906414   -6.30968719243    0.00000000000   -2.00000000000
     -6.30968719243   -2.10322906414    0.00000000000   -2.00000000000
     -6.30968719243    0.00000000000   -2.10322906414   -2.00000000000
      0.00000000000    6.30968719243   -2.10322906414   -2.00000000000
      6.30968719243    0.00000000000   -2.10322906414   -2.00000000000
      0.00000000000   -6.30968719243   -2.10322906414   -2.00000000000
     -2.10322906414    0.00000000000   -6.30968719243   -2.00000000000
      0.00000000000    2.10322906414   -6.30968719243   -2.00000000000
      2.10322906414    0.00000000000   -6.30968719243   -2.00000000000
      0.00000000000   -2.10322906414   -6.30968719243   -2.00000000000
     -2.10322906414    2.10322906414    6.30968719243    2.00000000000
      2.10322906414    2.10322906414    6.30968719243    2.00000000000
      2.10322906414   -2.10322906414    6.30968719243    2.00000000000
     -2.10322906414   -2.10322906414    6.30968719243    2.00000000000
     -6.30968719243    2.10322906414    2.10322906414    2.00000000000
     -2.10322906414    6.30968719243    2.10322906414    2.00000000000
      2.10322906414    6.30968719243    2.10322906414    2.00000000000
      6.30968719243    2.10322906414    2.10322906414    2.00000000000
      6.30968719243   -2.10322906414    2.10322906414    2.00000000000
      2.10322906414   -6.30968719243    2.10322906414    2.00000000000
     -2.10322906414   -6.30968719243    2.10322906414    2.00000000000
     -6.30968719243   -2.10322906414    2.10322906414    2.00000000000
     -6.30968719243    2.10322906414   -2.10322906414    2.00000000000
     -2.10322906414    6.30968719243   -2.10322906414    2.00000000000
      2.10322906414    6.30968719243   -2.10322906414    2.00000000000
      6.30968719243    2.10322906414   -2.10322906414    2.00000000000
      6.30968719243   -2.10322906414   -2.10322906414    2.00000000000
      2.10322906414   -6.30968719243   -2.10322906414    2.00000000000
     -2.10322906414   -6.30968719243   -2.10322906414    2.00000000000
     -6.30968719243   -2.10322906414   -2.10322906414    2.00000000000
     -2.10322906414    2.10322906414   -6.30968719243    2.00000000000
      2.10322906414    2.10322906414   -6.30968719243    2.00000000000
      2.10322906414   -2.10322906414   -6.30968719243    2.00000000000
     -2.10322906414   -2.10322906414   -6.30968719243    2.00000000000
     -4.20645812828    4.20645812828    4.20645812828   -2.00000000000
      4.20645812828    4.20645812828    4.20645812828   -2.00000000000
      4.20645812828   -4.20645812828    4.20645812828   -2.00000000000
     -4.20645812828   -4.20645812828    4.20645812828   -2.00000000000
     -4.20645812828    4.20645812828   -4.20645812828   -2.00000000000
      4.20645812828    4.20645812828   -4.20645812828   -2.00000000000
      4.20645812828   -4.20645812828   -4.20645812828   -2.00000000000
     -4.20645812828   -4.20645812828   -4.20645812828   -2.00000000000
     -4.20645812828    0.00000000000    6.30968719243    2.00000000000
      0.00000000000    4.20645812828    6.30968719243    2.00000000000
      4.20645812828    0.00000000000    6.30968719243    2.00000000000
      0.00000000000   -4.20645812828    6.30968719243    2.00000000000
     -6.30968719243    0.00000000000    4.20645812828    2.00000000000
      0.00000000000    6.30968719243    4.20645812828    2.00000000000
      6.30968719243    0.00000000000    4.20645812828    2.00000000000
      0.00000000000   -6.30968719243    4.20645812828    2.00000000000
     -6.30968719243    4.20645812828    0.00000000000    2.00000000000
     -4.20645812828    6.30968719243    0.00000000000    2.00000000000
      4.20645812828    6.30968719243    0.00000000000    2.00000000000
      6.30968719243    4.20645812828    0.00000000000    2.00000000000
      6.30968719243   -4.20645812828    0.00000000000    2.00000000000
      4.20645812828   -6.30968719243    0.00000000000    2.00000000000
     -4.20645812828   -6.30968719243    0.00000000000    2.00000000000
     -6.30968719243   -4.20645812828    0.00000000000    2.00000000000
     -6.30968719243    0.00000000000   -4.20645812828    2.00000000000
      0.00000000000    6.30968719243   -4.20645812828    2.00000000000
      6.30968719243    0.00000000000   -4.20645812828    2.00000000000
      0.00000000000   -6.30968719243   -4.20645812828    2.00000000000
     -4.20645812828    0.00000000000   -6.30968719243    2.00000000000
      0.00000000000    4.20645812828   -6.30968719243    2.00000000000
      4.20645812828    0.00000000000   -6.30968719243    2.00000000000
      0.00000000000   -4.20645812828   -6.30968719243    2.00000000000
     -4.20645812828    2.10322906414    6.30968719243   -2.00000000000
     -2.10322906414    4.20645812828    6.30968719243   -2.00000000000
      2.10322906414    4.20645812828    6.30968719243   -2.00000000000
      4.20645812828    2.10322906414    6.30968719243   -2.00000000000
      4.20645812828   -2.10322906414    6.30968719243   -2.00000000000
      2.10322906414   -4.20645812828    6.30968719243   -2.00000000000
     -2.10322906414   -4.20645812828    6.30968719243   -2.00000000000
     -4.20645812828   -2.10322906414    6.30968719243   -2.00000000000
     -6.30968719243    2.10322906414    4.20645812828   -2.00000000000
     -2.10322906414    6.30968719243    4.20645812828   -2.00000000000
      2.10322906414    6.30968719243    4.20645812828   -2.00000000000
      6.30968719243    2.10322906414    4.20645812828   -2.00000000000
      6.30968719243   -2.10322906414    4.20645812828   -2.00000000000
      2.10322906414   -6.30968719243    4.20645812828   -2.00000000000
     -2.10322906414   -6.30968719243    4.20645812828   -2.00000000000
     -6.30968719243   -2.10322906414    4.20645812828   -2.00000000000
     -6.30968719243    4.20645812828    2.10322906414   -2.00000000000
     -4.20645812828    6.30968719243    2.10322906414   -2.00000000000
      4.20645812828    6.30968719243    2.10322906414   -2.00000000000
      6.30968719243    4.20645812828    2.10322906414   -2.00000000000
      6.30968719243   -4.20645812828    2.10322906414   -2.00000000000
      4.20645812828   -6.30968719243    2.10322906414   -2.00000000000
     -4.20645812828   -6.30968719243    2.10322906414   -2.00000000000
     -6.30968719243   -4.20645812828    2.10322906414   -2.00000000000
     -6.30968719243    4.20645812828   -2.10322906414   -2.00000000000
     -4.20645812828    6.30968719243   -2.10322906414   -2.00000000000
      4.20645812828    6.30968719243   -2.10322906414   -2.00000000000
      6.30968719243    4.20645812828   -2.10322906414   -2.00000000000
      6.30968719243   -4.20645812828   -2.10322906414   -2.00000000000
      4.20645812828   -6.30968719243   -2.10322906414   -2.00000000000
     -4.20645812828   -6.30968719243   -2.10322906414   -2.00000000000
     -6.30968719243   -4.20645812828   -2.10322906414   -2.00000000000
     -6.30968719243    2.10322906414   -4.20645812828   -2.00000000000
     -2.10322906414    6.30968719243   -4.20645812828   -2.00000000000
      2.10322906414    6.30968719243   -4.20645812828   -2.00000000000
      6.30968719243    2.10322906414   -4.20645812828   -2.00000000000
      6.30968719243   -2.10322906414   -4.20645812828   -2.00000000000
      2.10322906414   -6.30968719243   -4.20645812828   -2.00000000000
     -2.10322906414   -6.30968719243   -4.20645812828   -2.00000000000
     -6.30968719243   -2.10322906414   -4.20645812828   -2.00000000000
     -4.20645812828    2.10322906414   -6.30968719243   -2.00000000000
     -2.10322906414    4.20645812828   -6.30968719243   -2.00000000000
      2.10322906414    4.20645812828   -6.30968719243   -2.00000000000
      4.20645812828    2.10322906414   -6.30968719243   -2.00000000000
      4.20645812828   -2.10322906414   -6.30968719243   -2.00000000000
      2.10322906414   -4.20645812828   -6.30968719243   -2.00000000000
     -2.10322906414   -4.20645812828   -6.30968719243   -2.00000000000
     -4.20645812828   -2.10322906414   -6.30968719243   -2.00000000000
      0.00000000000    0.00000000000    8.41291625657   -2.00000000000
     -8.41291625657    0.00000000000    0.00000000000   -2.00000000000
      0.00000000000    8.41291625657    0.00000000000   -2.00000000000
      8.41291625657    0.00000000000    0.00000000000   -2.00000000000
      0.00000000000   -8.41291625657    0.00000000000   -2.00000000000
      0.00000000000    0.00000000000   -8.41291625657   -2.00000000000
     -2.10322906414    0.00000000000    8.41291625657    2.00000000000
      0.00000000000    2.10322906414    8.41291625657    2.00000000000
      2.10322906414    0.00000000000    8.41291625657    2.00000000000
      0.00000000000   -2.10322906414    8.41291625657    2.00000000000
     -4.20645812828    4.20645812828    6.30968719243    2.00000000000
      4.20645812828    4.20645812828    6.30968719243    2.00000000000
      4.20645812828   -4.20645812828    6.30968719243    2.00000000000
     -4.20645812828   -4.20645812828    6.30968719243    2.00000000000
     -6.30968719243    4.20645812828    4.20645812828    2.00000000000
     -4.20645812828    6.30968719243    4.20645812828    2.00000000000
      4.20645812828    6.30968719243    4.20645812828    2.00000000000
      6.30968719243    4.20645812828    4.20645812828    2.00000000000
      6.30968719243   -4.20645812828    4.20645812828    2.00000000000
      4.20645812828   -6.30968719243    4.20645812828    2.00000000000
     -4.20645812828   -6.30968719243    4.20645812828    2.00000000000
     -6.30968719243   -4.20645812828    4.20645812828    2.00000000000
     -8.41291625657    0.00000000000    2.10322906414    2.00000000000
      0.00000000000    8.41291625657    2.10322906414    2.00000000000
      8.41291625657    0.00000000000    2.10322906414    2.00000000000
      0.00000000000   -8.41291625657    2.10322906414    2.00000000000
     -8.41291625657    2.10322906414    0.00000000000    2.00000000000
     -2.10322906414    8.41291625657    0.00000000000    2.00000000000
      2.10322906414    8.41291625657    0.00000000000    2.00000000000
      8.41291625657    2.10322906414    0.00000000000    2.00000000000
      8.41291625657   -2.10322906414    0.00000000000    2.00000000000
      2.10322906414   -8.41291625657    0.00000000000    2.00000000000
     -2.10322906414   -8.41291625657    0.00000000000    2.00000000000
     -8.41291625657   -2.10322906414    0.00000000000    2.00000000000
     -8.41291625657    0.00000000000   -2.10322906414    2.00000000000
      0.00000000000    8.41291625657   -2.10322906414    2.00000000000
      8.41291625657    0.00000000000   -2.10322906414    2.00000000000
      0.00000000000   -8.41291625657   -2.10322906414    2.00000000000
     -6.30968719243    4.20645812828   -4.20645812828    2.00000000000
     -4.20645812828    6.30968719243   -4.20645812828    2.00000000000
      4.20645812828    6.30968719243   -4.20645812828    2.00000000000
      6.30968719243    4.20645812828   -4.20645812828    2.00000000000
      6.30968719243   -4.20645812828   -4.20645812828    2.00000000000
      4.20645812828   -6.30968719243   -4.20645812828    2.00000000000
     -4.20645812828   -6.30968719243   -4.20645812828    2.00000000000
     -6.30968719243   -4.20645812828   -4.20645812828    2.00000000000
     -4.20645812828    4.20645812828   -6.30968719243    2.00000000000
      4.20645812828    4.20645812828   -6.30968719243    2.00000000000
      4.20645812828   -4.20645812828   -6.30968719243    2.00000000000
     -4.20645812828   -4.20645812828   -6.30968719243    2.00000000000
     -2.10322906414    0.00000000000   -8.41291625657    2.00000000000
      0.00000000000    2.10322906414   -8.41291625657    2.00000000000
      2.10322906414    0.00000000000   -8.41291625657    2.00000000000
      0.00000000000   -2.10322906414   -8.41291625657    2.00000000000
     -2.10322906414    2.10322906414    8.41291625657   -2.00000000000
      2.10322906414    2.10322906414    8.41291625657   -2.00000000000
      2.10322906414   -2.10322906414    8.41291625657   -2.00000000000
     -2.10322906414   -2.10322906414    8.41291625657   -2.00000000000
     -6.30968719243    0.00000000000    6.30968719243   -2.00000000000
      0.00000000000    6.30968719243    6.30968719243   -2.00000000000
      6.30968719243    0.00000000000    6.30968719243   -2.00000000000
      0.00000000000   -6.30968719243    6.30968719243   -2.00000000000
     -8.41291625657    2.10322906414    2.10322906414   -2.00000000000
     -2.10322906414    8.41291625657    2.10322906414   -2.00000000000
      2.10322906414    8.41291625657    2.10322906414   -2.00000000000
      8.41291625657    2.10322906414    2.10322906414   -2.00000000000
      8.41291625657   -2.10322906414    2.10322906414   -2.00000000000
      2.10322906414   -8.41291625657    2.10322906414   -2.00000000000
     -2.10322906414   -8.41291625657    2.10322906414   -2.00000000000
     -8.41291625657   -2.10322906414    2.10322906414   -2.00000000000
     -6.30968719243    6.30968719243    0.00000000000   -2.00000000000
      6.30968719243    6.30968719243    0.00000000000   -2.00000000000
      6.30968719243   -6.30968719243    0.00000000000   -2.00000000000
     -6.30968719243   -6.30968719243    0.00000000000   -2.00000000000
     -8.41291625657    2.10322906414   -2.10322906414   -2.00000000000
     -2.10322906414    8.41291625657   -2.10322906414   -2.00000000000
      2.10322906414    8.41291625657   -2.10322906414   -2.00000000000
      8.41291625657    2.10322906414   -2.10322906414   -2.00000000000
      8.41291625657   -2.10322906414   -2.10322906414   -2.00000000000
      2.10322906414   -8.41291625657   -2.10322906414   -2.00000000000
     -2.10322906414   -8.41291625657   -2.10322906414   -2.00000000000
     -8.41291625657   -2.10322906414   -2.10322906414   -2.00000000000
     -6.30968719243    0.00000000000   -6.30968719243   -2.00000000000
      0.00000000000    6.30968719243   -6.30968719243   -2.00000000000
      6.30968719243    0.00000000000   -6.30968719243   -2.00000000000
      0.00000000000   -6.30968719243   -6.30968719243   -2.00000000000
     -2.10322906414    2.10322906414   -8.41291625657   -2.00000000000
      2.10322906414    2.10322906414   -8.41291625657   -2.00000000000
      2.10322906414   -2.10322906414   -8.41291625657   -2.00000000000
     -2.10322906414   -2.10322906414   -8.41291625657   -2.00000000000
     -6.30968719243    2.10322906414    6.30968719243    2.00000000000
     -2.10322906414    6.30968719243    6.30968719243    2.00000000000
      2.10322906414    6.30968719243    6.30968719243    2.00000000000
      6.30968719243    2.10322906414    6.30968719243    2.00000000000
      6.30968719243   -2.10322906414    6.30968719243    2.00000000000
      2.10322906414   -6.30968719243    6.30968719243    2.00000000000
     -2.10322906414   -6.30968719243    6.30968719243    2.00000000000
     -6.30968719243   -2.10322906414    6.30968719243    2.00000000000
     -6.30968719243    6.30968719243    2.10322906414    2.00000000000
      6.30968719243    6.30968719243    2.10322906414    2.00000000000
      6.30968719243   -6.30968719243    2.10322906414    2.00000000000
     -6.30968719243   -6.30968719243    2.10322906414    2.00000000000
     -6.30968719243    6.30968719243   -2.10322906414    2.00000000000
      6.30968719243    6.30968719243   -2.10322906414    2.00000000000
      6.30968719243   -6.30968719243   -2.10322906414    2.00000000000
     -6.30968719243   -6.30968719243   -2.10322906414    2.00000000000
     -6.30968719243    2.10322906414   -6.30968719243    2.00000000000
     -2.10322906414    6.30968719243   -6.30968719243    2.00000000000
      2.10322906414    6.30968719243   -6.30968719243    2.00000000000
      6.30968719243    2.10322906414   -6.30968719243    2.00000000000
      6.30968719243   -2.10322906414   -6.30968719243    2.00000000000
      2.10322906414   -6.30968719243   -6.30968719243    2.00000000000
     -2.10322906414   -6.30968719243   -6.30968719243    2.00000000000
     -6.30968719243   -2.10322906414   -6.30968719243    2.00000000000
     -4.20645812828    0.00000000000    8.41291625657   -2.00000000000
      0.00000000000    4.20645812828    8.41291625657   -2.00000000000
      4.20645812828    0.00000000000    8.41291625657   -2.00000000000
      0.00000000000   -4.20645812828    8.41291625657   -2.00000000000
     -8.41291625657    0.00000000000    4.20645812828   -2.00000000000
      0.00000000000    8.41291625657    4.20645812828   -2.00000000000
      8.41291625657    0.00000000000    4.20645812828   -2.00000000000
      0.00000000000   -8.41291625657    4.20645812828   -2.00000000000
     -8.41291625657    4.20645812828    0.00000000000   -2.00000000000
     -4.20645812828    8.41291625657    0.00000000000   -2.00000000000
      4.20645812828    8.41291625657    0.00000000000   -2.00000000000
      8.41291625657    4.20645812828    0.00000000000   -2.00000000000
      8.41291625657   -4.20645812828    0.00000000000   -2.00000000000
      4.20645812828   -8.41291625657    0.00000000000   -2.00000000000
     -4.20645812828   -8.41291625657    0.00000000000   -2.00000000000
     -8.41291625657   -4.20645812828    0.00000000000   -2.00000000000
     -8.41291625657    0.00000000000   -4.20645812828   -2.00000000000
      0.00000000000    8.41291625657   -4.20645812828   -2.00000000000
      8.41291625657    0.00000000000   -4.20645812828   -2.00000000000
      0.00000000000   -8.41291625657   -4.20645812828   -2.00000000000
     -4.20645812828    0.00000000000   -8.41291625657   -2.00000000000
      0.00000000000    4.20645812828   -8.41291625657   -2.00000000000
      4.20645812828    0.00000000000   -8.41291625657   -2.00000000000
      0.00000000000   -4.20645812828   -8.41291625657   -2.00000000000
     -4.20645812828    2.10322906414    8.41291625657    2.00000000000
     -2.10322906414    4.20645812828    8.41291625657    2.00000000000
      2.10322906414    4.20645812828    8.41291625657    2.00000000000
      4.20645812828    2.10322906414    8.41291625657    2.00000000000
      4.20645812828   -2.10322906414    8.41291625657    2.00000000000
      2.10322906414   -4.20645812828    8.41291625657    2.00000000000
     -2.10322906414   -4.20645812828    8.41291625657    2.00000000000
     -4.20645812828   -2.10322906414    8.41291625657    2.00000000000
     -8.41291625657    2.10322906414    4.20645812828    2.00000000000
     -2.10322906414    8.41291625657    4.20645812828    2.00000000000
      2.10322906414    8.41291625657    4.20645812828    2.00000000000
      8.41291625657    2.10322906414    4.20645812828    2.00000000000
      8.41291625657   -2.10322906414    4.20645812828    2.00000000000
      2.10322906414   -8.41291625657    4.20645812828    2.00000000000
     -2.10322906414   -8.41291625657    4.20645812828    2.00000000000
     -8.41291625657   -2.10322906414    4.20645812828    2.00000000000
     -8.41291625657    4.20645812828    2.10322906414    2.00000000000
     -4.20645812828    8.41291625657    2.10322906414    2.00000000000
      4.20645812828    8.41291625657    2.10322906414    2.00000000000
      8.41291625657    4.20645812828    2.10322906414    2.00000000000
      8.41291625657   -4.20645812828    2.10322906414    2.00000000000
      4.20645812828   -8.41291625657    2.10322906414    2.00000000000
     -4.20645812828   -8.41291625657    2.10322906414    2.00000000000
     -8.41291625657   -4.20645812828    2.10322906414    2.00000000000
     -8.41291625657    4.20645812828   -2.10322906414    2.00000000000
     -4.20645812828    8.41291625657   -2.10322906414    2.00000000000
      4.20645812828    8.41291625657   -2.10322906414    2.00000000000
      8.41291625657    4.20645812828   -2.10322906414    2.00000000000
      8.41291625657   -4.20645812828   -2.10322906414    2.00000000000
      4.20645812828   -8.41291625657   -2.10322906414    2.00000000000
     -4.20645812828   -8.41291625657   -2.10322906414    2.00000000000
     -8.41291625657   -4.20645812828   -2.10322906414    2.00000000000
     -8.41291625657    2.10322906414   -4.20645812828    2.00000000000
     -2.10322906414    8.41291625657   -4.20645812828    2.00000000000
      2.10322906414    8.41291625657   -4.20645812828    2.00000000000
      8.41291625657    2.10322906414   -4.20645812828    2.00000000000
      8.41291625657   -2.10322906414   -4.20645812828    2.00000000000
      2.10322906414   -8.41291625657   -4.20645812828    2.00000000000
     -2.10322906414   -8.41291625657   -4.20645812828    2.00000000000
     -8.41291625657   -2.10322906414   -4.20645812828    2.00000000000
     -4.20645812828    2.10322906414   -8.41291625657    2.00000000000
     -2.10322906414    4.20645812828   -8.41291625657    2.00000000000
      2.10322906414    4.20645812828   -8.41291625657    2.00000000000
      4.20645812828    2.10322906414   -8.41291625657    2.00000000000
      4.20645812828   -2.10322906414   -8.41291625657    2.00000000000
      2.10322906414   -4.20645812828   -8.41291625657    2.00000000000
     -2.10322906414   -4.20645812828   -8.41291625657    2.00000000000
     -4.20645812828   -2.10322906414   -8.41291625657    2.00000000000
      0.00000000000    0.00000000000   10.51614532071    2.00000000000
    -10.51614532071    0.00000000000    0.00000000000    2.00000000000
      0.00000000000   10.51614532071    0.00000000000    2.00000000000
     10.51614532071    0.00000000000    0.00000000000    2.00000000000
      0.00000000000  -10.51614532071    0.00000000000    2.00000000000
      0.00000000000    0.00000000000  -10.51614532071    2.00000000000
     -2.10322906414    0.00000000000   10.51614532071   -2.00000000000
      0.00000000000    2.10322906414   10.51614532071   -2.00000000000
      2.10322906414    0.00000000000   10.51614532071   -2.00000000000
      0.00000000000   -2.10322906414   10.51614532071   -2.00000000000
    -10.51614532071    0.00000000000    2.10322906414   -2.00000000000
      0.00000000000   10.51614532071    2.10322906414   -2.00000000000
     10.51614532071    0.00000000000    2.10322906414   -2.00000000000
      0.00000000000  -10.51614532071    2.10322906414   -2.00000000000
    -10.51614532071    2.10322906414    0.00000000000   -2.00000000000
     -2.10322906414   10.51614532071    0.00000000000   -2.00000000000
      2.10322906414   10.51614532071    0.00000000000   -2.00000000000
     10.51614532071    2.10322906414    0.00000000000   -2.00000000000
     10.51614532071   -2.10322906414    0.00000000000   -2.00000000000
      2.10322906414  -10.51614532071    0.00000000000   -2.00000000000
     -2.10322906414  -10.51614532071    0.00000000000   -2.00000000000
    -10.51614532071   -2.10322906414    0.00000000000   -2.00000000000
    -10.51614532071    0.00000000000   -2.10322906414   -2.00000000000
      0.00000000000   10.51614532071   -2.10322906414   -2.00000000000
     10.51614532071    0.00000000000   -2.10322906414   -2.00000000000
      0.00000000000  -10.51614532071   -2.10322906414   -2.00000000000
     -2.10322906414    0.00000000000  -10.51614532071   -2.00000000000
      0.00000000000    2.10322906414  -10.51614532071   -2.00000000000
      2.10322906414    0.00000000000  -10.51614532071   -2.00000000000
      0.00000000000   -2.10322906414  -10.51614532071   -2.00000000000
     -2.10322906414    2.10322906414   10.51614532071    2.00000000000
      2.10322906414    2.10322906414   10.51614532071    2.00000000000
      2.10322906414   -2.10322906414   10.51614532071    2.00000000000
     -2.10322906414   -2.10322906414   10.51614532071    2.00000000000
    -10.51614532071    2.10322906414    2.10322906414    2.00000000000
     -2.10322906414   10.51614532071    2.10322906414    2.00000000000
      2.10322906414   10.51614532071    2.10322906414    2.00000000000
     10.51614532071    2.10322906414    2.10322906414    2.00000000000
     10.51614532071   -2.10322906414    2.10322906414    2.00000000000
      2.10322906414  -10.51614532071    2.10322906414    2.00000000000
     -2.10322906414  -10.51614532071    2.10322906414    2.00000000000
    -10.51614532071   -2.10322906414    2.10322906414    2.00000000000
    -10.51614532071    2.10322906414   -2.10322906414    2.00000000000
     -2.10322906414   10.51614532071   -2.10322906414    2.00000000000
      2.10322906414   10.51614532071   -2.10322906414    2.00000000000
     10.51614532071    2.10322906414   -2.10322906414    2.00000000000
     10.51614532071   -2.10322906414   -2.10322906414    2.00000000000
      2.10322906414  -10.51614532071   -2.10322906414    2.00000000000
     -2.10322906414  -10.51614532071   -2.10322906414    2.00000000000
    -10.51614532071   -2.10322906414   -2.10322906414    2.00000000000
     -2.10322906414    2.10322906414  -10.51614532071    2.00000000000
      2.10322906414    2.10322906414  -10.51614532071    2.00000000000
      2.10322906414   -2.10322906414  -10.51614532071    2.00000000000
     -2.10322906414   -2.10322906414  -10.51614532071    2.00000000000
     -6.30968719243    4.20645812828    6.30968719243   -2.00000000000
     -4.20645812828    6.30968719243    6.30968719243   -2.00000000000
      4.20645812828    6.30968719243    6.30968719243   -2.00000000000
      6.30968719243    4.20645812828    6.30968719243   -2.00000000000
      6.30968719243   -4.20645812828    6.30968719243   -2.00000000000
      4.20645812828   -6.30968719243    6.30968719243   -2.00000000000
     -4.20645812828   -6.30968719243    6.30968719243   -2.00000000000
     -6.30968719243   -4.20645812828    6.30968719243   -2.00000000000
     -6.30968719243    6.30968719243    4.20645812828   -2.00000000000
      6.30968719243    6.30968719243    4.20645812828   -2.00000000000
      6.30968719243   -6.30968719243    4.20645812828   -2.00000000000
     -6.30968719243   -6.30968719243    4.20645812828   -2.00000000000
     -6.30968719243    6.30968719243   -4.20645812828   -2.00000000000
      6.30968719243    6.30968719243   -4.20645812828   -2.00000000000
      6.30968719243   -6.30968719243   -4.20645812828   -2.00000000000
     -6.30968719243   -6.30968719243   -4.20645812828   -2.00000000000
     -6.30968719243    4.20645812828   -6.30968719243   -2.00000000000
     -4.20645812828    6.30968719243   -6.30968719243   -2.00000000000
      4.20645812828    6.30968719243   -6.30968719243   -2.00000000000
      6.30968719243    4.20645812828   -6.30968719243   -2.00000000000
      6.30968719243   -4.20645812828   -6.30968719243   -2.00000000000
      4.20645812828   -6.30968719243   -6.30968719243   -2.00000000000
     -4.20645812828   -6.30968719243   -6.30968719243   -2.00000000000
     -6.30968719243   -4.20645812828   -6.30968719243   -2.00000000000
     -4.20645812828    4.20645812828    8.41291625657   -2.00000000000
      4.20645812828    4.20645812828    8.41291625657   -2.00000000000
      4.20645812828   -4.20645812828    8.41291625657   -2.00000000000
     -4.20645812828   -4.20645812828    8.41291625657   -2.00000000000
     -8.41291625657    4.20645812828    4.20645812828   -2.00000000000
     -4.20645812828    8.41291625657    4.20645812828   -2.00000000000
      4.20645812828    8.41291625657    4.20645812828   -2.00000000000
      8.41291625657    4.20645812828    4.20645812828   -2.00000000000
      8.41291625657   -4.20645812828    4.20645812828   -2.00000000000
      4.20645812828   -8.41291625657    4.20645812828   -2.00000000000
     -4.20645812828   -8.41291625657    4.20645812828   -2.00000000000
     -8.41291625657   -4.20645812828    4.20645812828   -2.00000000000
     -8.41291625657    4.20645812828   -4.20645812828   -2.00000000000
     -4.20645812828    8.41291625657   -4.20645812828   -2.00000000000
      4.20645812828    8.41291625657   -4.20645812828   -2.00000000000
      8.41291625657    4.20645812828   -4.20645812828   -2.00000000000
      8.41291625657   -4.20645812828   -4.20645812828   -2.00000000000
      4.20645812828   -8.41291625657   -4.20645812828   -2.00000000000
     -4.20645812828   -8.41291625657   -4.20645812828   -2.00000000000
     -8.41291625657   -4.20645812828   -4.20645812828   -2.00000000000
     -4.20645812828    4.20645812828   -8.41291625657   -2.00000000000
      4.20645812828    4.20645812828   -8.41291625657   -2.00000000000
      4.20645812828   -4.20645812828   -8.41291625657   -2.00000000000
     -4.20645812828   -4.20645812828   -8.41291625657   -2.00000000000
     -6.30968719243    0.00000000000    8.41291625657    2.00000000000
      0.00000000000    6.30968719243    8.41291625657    2.00000000000
      6.30968719243    0.00000000000    8.41291625657    2.00000000000
      0.00000000000   -6.30968719243    8.41291625657    2.00000000000
     -8.41291625657    0.00000000000    6.30968719243    2.00000000000
      0.00000000000    8.41291625657    6.30968719243    2.00000000000
      8.41291625657    0.00000000000    6.30968719243    2.00000000000
      0.00000000000   -8.41291625657    6.30968719243    2.00000000000
     -8.41291625657    6.30968719243    0.00000000000    2.00000000000
     -6.30968719243    8.41291625657    0.00000000000    2.00000000000
      6.30968719243    8.41291625657    0.00000000000    2.00000000000
      8.41291625657    6.30968719243    0.00000000000    2.00000000000
      8.41291625657   -6.30968719243    0.00000000000    2.00000000000
      6.30968719243   -8.41291625657    0.00000000000    2.00000000000
     -6.30968719243   -8.41291625657    0.00000000000    2.00000000000
     -8.41291625657   -6.30968719243    0.00000000000    2.00000000000
     -8.41291625657    0.00000000000   -6.30968719243    2.00000000000
      0.00000000000    8.41291625657   -6.30968719243    2.00000000000
      8.41291625657    0.00000000000   -6.30968719243    2.00000000000
      0.00000000000   -8.41291625657   -6.30968719243    2.00000000000
     -6.30968719243    0.00000000000   -8.41291625657    2.00000000000
      0.00000000000    6.30968719243   -8.41291625657    2.00000000000
      6.30968719243    0.00000000000   -8.41291625657    2.00000000000
      0.00000000000   -6.30968719243   -8.41291625657    2.00000000000
     -6.30968719243    2.10322906414    8.41291625657   -2.00000000000
     -2.10322906414    6.30968719243    8.41291625657   -2.00000000000
      2.10322906414    6.30968719243    8.41291625657   -2.00000000000
      6.30968719243    2.10322906414    8.41291625657   -2.00000000000
      6.30968719243   -2.10322906414    8.41291625657   -2.00000000000
      2.10322906414   -6.30968719243    8.41291625657   -2.00000000000
     -2.10322906414   -6.30968719243    8.41291625657   -2.00000000000
     -6.30968719243   -2.10322906414    8.41291625657   -2.00000000000
     -8.41291625657    2.10322906414    6.30968719243   -2.00000000000
     -2.10322906414    8.41291625657    6.30968719243   -2.00000000000
      2.10322906414    8.41291625657    6.30968719243   -2.00000000000
      8.41291625657    2.10322906414    6.30968719243   -2.00000000000
      8.41291625657   -2.10322906414    6.30968719243   -2.00000000000
      2.10322906414   -8.41291625657    6.30968719243   -2.00000000000
     -2.10322906414   -8.41291625657    6.30968719243   -2.00000000000
     -8.41291625657   -2.10322906414    6.30968719243   -2.00000000000
     -8.41291625657    6.30968719243    2.10322906414   -2.00000000000
     -6.30968719243    8.41291625657    2.10322906414   -2.00000000000
      6.30968719243    8.41291625657    2.10322906414   -2.00000000000
      8.41291625657    6.30968719243    2.10322906414   -2.00000000000
      8.41291625657   -6.30968719243    2.10322906414   -2.00000000000
      6.30968719243   -8.41291625657    2.10322906414   -2.00000000000
     -6.30968719243   -8.41291625657    2.10322906414   -2.00000000000
     -8.41291625657   -6.30968719243    2.10322906414   -2.00000000000
     -8.41291625657    6.30968719243   -2.10322906414   -2.00000000000
     -6.30968719243    8.41291625657   -2.10322906414   -2.00000000000
      6.30968719243    8.41291625657   -2.10322906414   -2.00000000000
      8.41291625657    6.30968719243   -2.10322906414   -2.00000000000
      8.41291625657   -6.30968719243   -2.10322906414   -2.00000000000
      6.30968719243   -8.41291625657   -2.10322906414   -2.00000000000
     -6.30968719243   -8.41291625657   -2.10322906414   -2.00000000000
     -8.41291625657   -6.30968719243   -2.10322906414   -2.00000000000
     -8.41291625657    2.10322906414   -6.30968719243   -2.00000000000
     -2.10322906414    8.41291625657   -6.30968719243   -2.00000000000
      2.10322906414    8.41291625657   -6.30968719243   -2.00000000000
      8.41291625657    2.10322906414   -6.30968719243   -2.00000000000
      8.41291625657   -2.10322906414   -6.30968719243   -2.00000000000
      2.10322906414   -8.41291625657   -6.30968719243   -2.00000000000
     -2.10322906414   -8.41291625657   -6.30968719243   -2.00000000000
     -8.41291625657   -2.10322906414   -6.30968719243   -2.00000000000
     -6.30968719243    2.10322906414   -8.41291625657   -2.00000000000
     -2.10322906414    6.30968719243   -8.41291625657   -2.00000000000
      2.10322906414    6.30968719243   -8.41291625657   -2.00000000000
      6.30968719243    2.10322906414   -8.41291625657   -2.00000000000
      6.30968719243   -2.10322906414   -8.41291625657   -2.00000000000
      2.10322906414   -6.30968719243   -8.41291625657   -2.00000000000
     -2.10322906414   -6.30968719243   -8.41291625657   -2.00000000000
     -6.30968719243   -2.10322906414   -8.41291625657   -2.00000000000
     -6.30968719243    6.30968719243    6.30968719243    2.00000000000
      6.30968719243    6.30968719243    6.30968719243    2.00000000000
      6.30968719243   -6.30968719243    6.30968719243    2.00000000000
     -6.30968719243   -6.30968719243    6.30968719243    2.00000000000
     -6.30968719243    6.30968719243   -6.30968719243    2.00000000000
      6.30968719243    6.30968719243   -6.30968719243    2.00000000000
      6.30968719243   -6.30968719243   -6.30968719243    2.00000000000
     -6.30968719243   -6.30968719243   -6.30968719243    2.00000000000
     -4.20645812828    0.00000000000   10.51614532071    2.00000000000
      0.00000000000    4.20645812828   10.51614532071    2.00000000000
      4.20645812828    0.00000000000   10.51614532071    2.00000000000
      0.00000000000   -4.20645812828   10.51614532071    2.00000000000
     -6.30968719243    4.20645812828    8.41291625657    2.00000000000
     -4.20645812828    6.30968719243    8.41291625657    2.00000000000
      4.20645812828    6.30968719243    8.41291625657    2.00000000000
      6.30968719243    4.20645812828    8.41291625657    2.00000000000
      6.30968719243   -4.20645812828    8.41291625657    2.00000000000
      4.20645812828   -6.30968719243    8.41291625657    2.00000000000
     -4.20645812828   -6.30968719243    8.41291625657    2.00000000000
     -6.30968719243   -4.20645812828    8.41291625657    2.00000000000
     -8.41291625657    4.20645812828    6.30968719243    2.00000000000
     -4.20645812828    8.41291625657    6.30968719243    2.00000000000
      4.20645812828    8.41291625657    6.30968719243    2.00000000000
      8.41291625657    4.20645812828    6.30968719243    2.00000000000
      8.41291625657   -4.20645812828    6.30968719243    2.00000000000
      4.20645812828   -8.41291625657    6.30968719243    2.00000000000
     -4.20645812828   -8.41291625657    6.30968719243    2.00000000000
     -8.41291625657   -4.20645812828    6.30968719243    2.00000000000
    -10.51614532071    0.00000000000    4.20645812828    2.00000000000
     -8.41291625657    6.30968719243    4.20645812828    2.00000000000
     -6.30968719243    8.41291625657    4.20645812828    2.00000000000
      0.00000000000   10.51614532071    4.20645812828    2.00000000000
      6.30968719243    8.41291625657    4.20645812828    2.00000000000
      8.41291625657    6.30968719243    4.20645812828    2.00000000000
     10.51614532071    0.00000000000    4.20645812828    2.00000000000
      8.41291625657   -6.30968719243    4.20645812828    2.00000000000
      6.30968719243   -8.41291625657    4.20645812828    2.00000000000
      0.00000000000  -10.51614532071    4.20645812828    2.00000000000
     -6.30968719243   -8.41291625657    4.20645812828    2.00000000000
     -8.41291625657   -6.30968719243    4.20645812828    2.00000000000
    -10.51614532071    4.20645812828    0.00000000000    2.00000000000
     -4.20645812828   10.51614532071    0.00000000000    2.00000000000
      4.20645812828   10.51614532071    0.00000000000    2.00000000000
     10.51614532071    4.20645812828    0.00000000000    2.00000000000
     10.51614532071   -4.20645812828    0.00000000000    2.00000000000
      4.20645812828  -10.51614532071    0.00000000000    2.00000000000
     -4.20645812828  -10.51614532071    0.00000000000    2.00000000000
    -10.51614532071   -4.20645812828    0.00000000000    2.00000000000
    -10.51614532071    0.00000000000   -4.20645812828    2.00000000000
     -8.41291625657    6.30968719243   -4.20645812828    2.00000000000
     -6.30968719243    8.41291625657   -4.20645812828    2.00000000000
      0.00000000000   10.51614532071   -4.20645812828    2.00000000000
      6.30968719243    8.41291625657   -4.20645812828    2.00000000000
      8.41291625657    6.30968719243   -4.20645812828    2.00000000000
     10.51614532071    0.00000000000   -4.20645812828    2.00000000000
      8.41291625657   -6.30968719243   -4.20645812828    2.00000000000
      6.30968719243   -8.41291625657   -4.20645812828    2.00000000000
      0.00000000000  -10.51614532071   -4.20645812828    2.00000000000
     -6.30968719243   -8.41291625657   -4.20645812828    2.00000000000
     -8.41291625657   -6.30968719243   -4.20645812828    2.00000000000
     -8.41291625657    4.20645812828   -6.30968719243    2.00000000000
     -4.20645812828    8.41291625657   -6.30968719243    2.00000000000
      4.20645812828    8.41291625657   -6.30968719243    2.00000000000
      8.41291625657    4.20645812828   -6.30968719243    2.00000000000
      8.41291625657   -4.20645812828   -6.30968719243    2.00000000000
      4.20645812828   -8.41291625657   -6.30968719243    2.00000000000
     -4.20645812828   -8.41291625657   -6.30968719243    2.00000000000
     -8.41291625657   -4.20645812828   -6.30968719243    2.00000000000
     -6.30968719243    4.20645812828   -8.41291625657    2.00000000000
     -4.20645812828    6.30968719243   -8.41291625657    2.00000000000
      4.20645812828    6.30968719243   -8.41291625657    2.00000000000
      6.30968719243    4.20645812828   -8.41291625657    2.00000000000
      6.30968719243   -4.20645812828   -8.41291625657    2.00000000000
      4.20645812828   -6.30968719243   -8.41291625657    2.00000000000
     -4.20645812828   -6.30968719243   -8.41291625657    2.00000000000
     -6.30968719243   -4.20645812828   -8.41291625657    2.00000000000
     -4.20645812828    0.00000000000  -10.51614532071    2.00000000000
      0.00000000000    4.20645812828  -10.51614532071    2.00000000000
      4.20645812828    0.00000000000  -10.51614532071    2.00000000000
      0.00000000000   -4.20645812828  -10.51614532071    2.00000000000
     -4.20645812828    2.10322906414   10.51614532071   -2.00000000000
     -2.10322906414    4.20645812828   10.51614532071   -2.00000000000
      2.10322906414    4.20645812828   10.51614532071   -2.00000000000
      4.20645812828    2.10322906414   10.51614532071   -2.00000000000
      4.20645812828   -2.10322906414   10.51614532071   -2.00000000000
      2.10322906414   -4.20645812828   10.51614532071   -2.00000000000
     -2.10322906414   -4.20645812828   10.51614532071   -2.00000000000
     -4.20645812828   -2.10322906414   10.51614532071   -2.00000000000
    -10.51614532071    2.10322906414    4.20645812828   -2.00000000000
     -2.10322906414   10.51614532071    4.20645812828   -2.00000000000
      2.10322906414   10.51614532071    4.20645812828   -2.00000000000
     10.51614532071    2.10322906414    4.20645812828   -2.00000000000
     10.51614532071   -2.10322906414    4.20645812828   -2.00000000000
      2.10322906414  -10.51614532071    4.20645812828   -2.00000000000
     -2.10322906414  -10.51614532071    4.20645812828   -2.00000000000
    -10.51614532071   -2.10322906414    4.20645812828   -2.00000000000
    -10.51614532071    4.20645812828    2.10322906414   -2.00000000000
     -4.20645812828   10.51614532071    2.10322906414   -2.00000000000
      4.20645812828   10.51614532071    2.10322906414   -2.00000000000
     10.51614532071    4.20645812828    2.10322906414   -2.00000000000
     10.51614532071   -4.20645812828    2.10322906414   -2.00000000000
      4.20645812828  -10.51614532071    2.10322906414   -2.00000000000
     -4.20645812828  -10.51614532071    2.10322906414   -2.00000000000
    -10.51614532071   -4.20645812828    2.10322906414   -2.00000000000
    -10.51614532071    4.20645812828   -2.10322906414   -2.00000000000
     -4.20645812828   10.51614532071   -2.10322906414   -2.00000000000
      4.20645812828   10.51614532071   -2.10322906414   -2.00000000000
     10.51614532071    4.20645812828   -2.10322906414   -2.00000000000
     10.51614532071   -4.20645812828   -2.10322906414   -2.00000000000
      4.20645812828  -10.51614532071   -2.10322906414   -2.00000000000
     -4.20645812828  -10.51614532071   -2.10322906414   -2.00000000000
    -10.51614532071   -4.20645812828   -2.10322906414   -2.00000000000
    -10.51614532071    2.10322906414   -4.20645812828   -2.00000000000
     -2.10322906414   10.51614532071   -4.20645812828   -2.00000000000
      2.10322906414   10.51614532071   -4.20645812828   -2.00000000000
     10.51614532071    2.10322906414   -4.20645812828   -2.00000000000
     10.51614532071   -2.10322906414   -4.20645812828   -2.00000000000
      2.10322906414  -10.51614532071   -4.20645812828   -2.00000000000
     -2.10322906414  -10.51614532071   -4.20645812828   -2.00000000000
    -10.51614532071   -2.10322906414   -4.20645812828   -2.00000000000
     -4.20645812828    2.10322906414  -10.51614532071   -2.00000000000
     -2.10322906414    4.20645812828  -10.51614532071   -2.00000000000
      2.10322906414    4.20645812828  -10.51614532071   -2.00000000000
      4.20645812828    2.10322906414  -10.51614532071   -2.00000000000
      4.20645812828   -2.10322906414  -10.51614532071   -2.00000000000
      2.10322906414   -4.20645812828  -10.51614532071   -2.00000000000
     -2.10322906414   -4.20645812828  -10.51614532071   -2.00000000000
     -4.20645812828   -2.10322906414  -10.51614532071   -2.00000000000
     -8.41291625657    0.00000000000    8.41291625657   -2.00000000000
      0.00000000000    8.41291625657    8.41291625657   -2.00000000000
      8.41291625657    0.00000000000    8.41291625657   -2.00000000000
      0.00000000000   -8.41291625657    8.41291625657   -2.00000000000
     -8.41291625657    8.41291625657    0.00000000000   -2.00000000000
      8.41291625657    8.41291625657    0.00000000000   -2.00000000000
      8.41291625657   -8.41291625657    0.00000000000   -2.00000000000
     -8.41291625657   -8.41291625657    0.00000000000   -2.00000000000
     -8.41291625657    0.00000000000   -8.41291625657   -2.00000000000
      0.00000000000    8.41291625657   -8.41291625657   -2.00000000000
      8.41291625657    0.00000000000   -8.41291625657   -2.00000000000
      0.00000000000   -8.41291625657   -8.41291625657   -2.00000000000
     -4.20645812828    4.20645812828   10.51614532071    2.00000000000
      4.20645812828    4.20645812828   10.51614532071    2.00000000000
      4.20645812828   -4.20645812828   10.51614532071    2.00000000000
[...]

 0%       25%       50%       75%       100%
 |---------|---------|---------|---------| 
 
 (T) correction [au]:                   -0.001457699301
 CCSD(T) correlation energy [au]:       -0.058448524138
 
 CPU time [min]:  1306.904                   Wall time [min]:    20.445
 
 MO:    94
 Number of atoms in domain:      25
 Number of atomic orbitals:     545
 Number of atoms for local DF:   21
 Number of fitting functions:  3153  (84.64%)
 Number of occupied orbitals:    36
 Number of virtual  orbitals:   403
 Number of Cholesky vectors:      7
 MP2 energy in ED [au]:          -0.057528153312
 Number of occupied LNOs:        17  (47.22%)
 Number of virtual  LNOs:        44  (10.92%)
dropped smallnorm    24    25   4.39667369E-05
dropped smallnorm    26    28   7.62982552E-05
dropped smallnorm    26    29   9.66093473E-05
dropped smallnorm    26    30   7.12157367E-05
 tol*100>norm                   156  7.489118420370550E-003
 tol*100>norm                   179  7.395861889805828E-003
 tol*100>norm                   202  7.484051581017706E-003
 tol*100>norm                   248  7.550771565501172E-003
 tol*100>norm                   271  7.549751233832039E-003
 tol*100>norm                   409  7.312932967723028E-003
 tol*100>norm                   432  7.372589420289859E-003
 avg/min projected vLNO norm    9.9927E-01    9.9594E-01
 Number of Cholesky vectors:      5
 MP2 energy in LIS [au]:         -0.056466559555
 Correction for frozen LNO [au]: -0.001061593757     (1.845%)
 Number of NAFs:                150   (4.76%)
 CPU time [min]:  1325.966                   Wall time [min]:    20.732
 

 Direct DF-CCSD(T) calculation
 
 Convergence criterion:  1.0E-05
 
 Number of occupied/virtual/auxiliary orbitals:    17    44   150
    155.89 MB is the minimal memory requirement for (T)
    153.02 MB is the minimal memory requirement for CCSD
 
 MP2 correlation energy [au]:        -0.396627219028
 
 LMP2 domain correlation energy contribution [au]:       -0.056487462981
 
 CPU time [min]:  1326.024                   Wall time [min]:    20.732
 
 
 Starting CCSD iterations...
 
                     Residual norm       Correlation Energy
 Iteration  1        0.150790953476       -0.411917409313
 Iteration  2        0.042244185185       -0.423485647588
 Iteration  3        0.011949172709       -0.424710217494
 Iteration  4        0.002484646046       -0.424567806170
 Iteration  5        0.000650315194       -0.424575628501
 Iteration  6        0.000155549840       -0.424584002512
 Iteration  7        0.000038307376       -0.424584885304
 
 CCSD iteration has converged in  7 steps.
      165.02 MB memory was utilized by CCSD
 
 T1 diagnostic:      8.000E-03            D1 diagnostic:      2.309E-02
 
 CCSD correlation energy [au]:          -0.056991275646
 
 CPU time [min]:  1326.697                   Wall time [min]:    20.743
 
 Calculation of (T) correction...
 
 Laplace threshold, nquadmin:  1.00E-01   2
 Number of quadrature points:    2
 
      166.70 MB memory is utilized for (T)

 0%       25%       50%       75%       100%
 |---------|---------|---------|---------| 
 
 (T) correction [au]:                   -0.001457777307
 CCSD(T) correlation energy [au]:       -0.058449052953
 
 CPU time [min]:  1327.448                   Wall time [min]:    20.754
 
 MO:    95
 Number of atoms in domain:      25
 Number of atomic orbitals:     545
 Number of atoms for local DF:   21
 Number of fitting functions:  3153  (84.64%)
 Number of occupied orbitals:    36
 Number of virtual  orbitals:   403
 Number of Cholesky vectors:      7
 MP2 energy in ED [au]:          -0.057531591726
 Number of occupied LNOs:        17  (47.22%)
 Number of virtual  LNOs:        44  (10.92%)
dropped smallnorm    42    43   4.55542568E-05
dropped smallnorm    44    46   8.54779428E-05
dropped smallnorm    44    47   2.93272493E-05
dropped smallnorm    44    48   7.34423104E-05
 tol*100>norm                   133  7.487586068393897E-003
 tol*100>norm                   202  7.549783036552550E-003
 tol*100>norm                   294  7.396359891490168E-003
 tol*100>norm                   317  7.485690933464031E-003
 tol*100>norm                   386  7.548038822707596E-003
 tol*100>norm                   409  7.309935034344206E-003
 tol*100>norm                   432  7.370238566359797E-003
 avg/min projected vLNO norm    9.9925E-01    9.9602E-01
 Number of Cholesky vectors:      5
 MP2 energy in LIS [au]:         -0.056464322569
 Correction for frozen LNO [au]: -0.001067269158     (1.855%)
 Number of NAFs:                150   (4.76%)
 CPU time [min]:  1346.449                   Wall time [min]:    21.039
 

 Direct DF-CCSD(T) calculation
 
 Convergence criterion:  1.0E-05
 
 Number of occupied/virtual/auxiliary orbitals:    17    44   150
    155.89 MB is the minimal memory requirement for (T)
    153.02 MB is the minimal memory requirement for CCSD
 
 MP2 correlation energy [au]:        -0.396588308980
 
 LMP2 domain correlation energy contribution [au]:       -0.056485233868
 
 CPU time [min]:  1346.507                   Wall time [min]:    21.040
 
 
 Starting CCSD iterations...
 
                     Residual norm       Correlation Energy
 Iteration  1        0.150751269335       -0.411859540001
 Iteration  2        0.042229173271       -0.423414609063
 Iteration  3        0.011947512486       -0.424640135984
 Iteration  4        0.002483962863       -0.424498109397
 Iteration  5        0.000650340032       -0.424505983016
 Iteration  6        0.000155538606       -0.424514361139
 Iteration  7        0.000038297267       -0.424515247405
 
 CCSD iteration has converged in  7 steps.
      165.02 MB memory was utilized by CCSD
 
 T1 diagnostic:      7.996E-03            D1 diagnostic:      2.305E-02
 
 CCSD correlation energy [au]:          -0.056988259676
 
 CPU time [min]:  1347.167                   Wall time [min]:    21.051
 
 Calculation of (T) correction...
 
 Laplace threshold, nquadmin:  1.00E-01   2
 Number of quadrature points:    2
 
      166.70 MB memory is utilized for (T)

 0%       25%       50%       75%       100%
 |---------|---------|---------|---------| 
 
 (T) correction [au]:                   -0.001457496936
 CCSD(T) correlation energy [au]:       -0.058445756612
 
 CPU time [min]:  1347.891                   Wall time [min]:    21.061
 
 MO:    96
 Number of atoms in domain:      25
 Number of atomic orbitals:     545
 Number of atoms for local DF:   21
 Number of fitting functions:  3153  (84.64%)
 Number of occupied orbitals:    37
 Number of virtual  orbitals:   403
 Number of Cholesky vectors:      7
 MP2 energy in ED [au]:          -0.057532391069
 Number of occupied LNOs:        17  (45.95%)
 Number of virtual  LNOs:        44  (10.92%)
dropped smallnorm    60    61   4.27622860E-05
dropped smallnorm    62    64   5.60618462E-05
dropped smallnorm    62    65   7.37945702E-05
dropped smallnorm    62    66   9.03664729E-05
 tol*100>norm                   120  5.655503938024755E-004
 tol*100>norm                   225  7.486198444017191E-003
 tol*100>norm                   248  7.488081297796378E-003
 tol*100>norm                   317  7.497481002462823E-003
 tol*100>norm                   340  7.397287441967045E-003
 tol*100>norm                   363  7.501581517801463E-003
 tol*100>norm                   409  7.312937206678219E-003
 tol*100>norm                   432  7.332041981126762E-003
 avg/min projected vLNO norm    9.9925E-01    9.9596E-01
 Number of Cholesky vectors:      5
 MP2 energy in LIS [au]:         -0.056460838387
 Correction for frozen LNO [au]: -0.001071552683     (1.863%)
 Number of NAFs:                150   (4.76%)
 CPU time [min]:  1367.163                   Wall time [min]:    21.350
 

 Direct DF-CCSD(T) calculation
 
 Convergence criterion:  1.0E-05
 
 Number of occupied/virtual/auxiliary orbitals:    17    44   150
    155.89 MB is the minimal memory requirement for (T)
    153.02 MB is the minimal memory requirement for CCSD
 
 MP2 correlation energy [au]:        -0.396591587005
 
 LMP2 domain correlation energy contribution [au]:       -0.056481760096
 
 CPU time [min]:  1367.256                   Wall time [min]:    21.351
 
 
 Starting CCSD iterations...
 
                     Residual norm       Correlation Energy
 Iteration  1        0.150812690376       -0.411878790904
 Iteration  2        0.042259084337       -0.423437477466
 Iteration  3        0.011949646200       -0.424662506663
 Iteration  4        0.002485425017       -0.424520263149
 Iteration  5        0.000650488137       -0.424528140110
 Iteration  6        0.000155597920       -0.424536512462
 Iteration  7        0.000038344431       -0.424537395245
 
 CCSD iteration has converged in  7 steps.
      165.02 MB memory was utilized by CCSD
 
 T1 diagnostic:      7.996E-03            D1 diagnostic:      2.306E-02
 
 CCSD correlation energy [au]:          -0.056985869969
 
 CPU time [min]:  1367.965                   Wall time [min]:    21.362
 
 Calculation of (T) correction...
 
 Laplace threshold, nquadmin:  1.00E-01   2
 Number of quadrature points:    2
 
      166.70 MB memory is utilized for (T)

 0%       25%       50%       75%       100%
 |---------|---------|---------|---------| 
 
 (T) correction [au]:                   -0.001457321621
 CCSD(T) correlation energy [au]:       -0.058443191590
 
 CPU time [min]:  1368.694                   Wall time [min]:    21.373
 
 MO:    97
 Number of atoms in domain:      25
 Number of atomic orbitals:     545
 Number of atoms for local DF:   25
 Number of fitting functions:  3725 (100.00%)
 Number of occupied orbitals:    97
 Number of virtual  orbitals:   424
 Number of Cholesky vectors:      7
 MP2 energy in ED [au]:          -0.049731332100
 Number of occupied LNOs:        52  (53.61%)
 Number of virtual  LNOs:       144  (33.96%)
dropped smallnorm    24    25   4.13288659E-05
dropped smallnorm    26    28   6.05725154E-05
dropped smallnorm    26    29   8.97681103E-05
dropped smallnorm    26    30   5.66609102E-05
dropped smallnorm    38    43   4.21504523E-05
dropped smallnorm    40    46   7.74870270E-05
dropped smallnorm    40    47   1.56403628E-05
dropped smallnorm    40    48   5.67422890E-05
dropped smallnorm    52    61   4.01266327E-05
dropped smallnorm    54    64   4.11879729E-05
dropped smallnorm    54    65   5.83213423E-05
dropped smallnorm    54    66   8.32053581E-05
dropped smallnorm    66    79   4.21525283E-05
dropped smallnorm    68    82   7.74748340E-05
dropped smallnorm    68    83   1.56198682E-05
dropped smallnorm    68    84   5.67260519E-05
dropped smallnorm    80    97   4.13297699E-05
dropped smallnorm    82   100   5.66510673E-05
dropped smallnorm    82   101   6.05809501E-05
dropped smallnorm    82   102   8.97589108E-05
dropped smallnorm    94   115   4.13275568E-05
dropped smallnorm    96   118   6.05730204E-05
dropped smallnorm    96   119   8.97601979E-05
dropped smallnorm    96   120   5.66612306E-05
 tol*100>norm                   133  7.388115871297118E-003
 tol*100>norm                   156  7.389076705808678E-003
 tol*100>norm                   179  7.389639826811631E-003
 tol*100>norm                   202  7.385258410876493E-003
 tol*100>norm                   225  7.386860536954759E-003
 tol*100>norm                   248  7.388669315144176E-003
 tol*100>norm                   271  7.385714600662022E-003
 tol*100>norm                   294  7.389648337692650E-003
 tol*100>norm                   317  7.386262263341908E-003
 tol*100>norm                   340  7.388861469075388E-003
 tol*100>norm                   363  7.388185313420668E-003
 tol*100>norm                   386  7.389257741557832E-003
 tol*100>norm                   409  7.306493369315874E-003
 tol*100>norm                   432  7.303829848290416E-003
 tol*100>norm                   455  7.306467709515672E-003
 tol*100>norm                   478  7.306015149659226E-003
 tol*100>norm                   501  7.304355138660219E-003
 tol*100>norm                   524  7.298331433182794E-003
 avg/min projected vLNO norm    9.9999E-01    9.9991E-01
 Number of Cholesky vectors:      5
 MP2 energy in LIS [au]:         -0.046116498501
 Correction for frozen LNO [au]: -0.003614833599     (7.269%)
 Number of NAFs:                552  (14.82%)
 CPU time [min]:  1433.968                   Wall time [min]:    22.368
 

 Direct DF-CCSD(T) calculation
 
 Convergence criterion:  1.0E-05
 
 Number of occupied/virtual/auxiliary orbitals:    52   144   552
   1304.89 MB is the minimal memory requirement for (T)
    983.46 MB is the minimal memory requirement for CCSD
 
 MP2 correlation energy [au]:        -1.433269281898
 
 LMP2 domain correlation energy contribution [au]:       -0.046088104040
 
 CPU time [min]:  1434.720                   Wall time [min]:    22.387
 
 
 Starting CCSD iterations...
 
                     Residual norm       Correlation Energy
 Iteration  1        0.229905574836       -1.450165776618
 Iteration  2        0.064299665615       -1.480078690736
 Iteration  3        0.021802138226       -1.484616732217
 Iteration  4        0.003802499230       -1.484714174536
 Iteration  5        0.001201979535       -1.484658826008
 Iteration  6        0.000331632503       -1.484645909339
 Iteration  7        0.000112921516       -1.484643449496
 Iteration  8        0.000030133475       -1.484644445862
 
 CCSD iteration has converged in  8 steps.
     2576.82 MB memory was utilized by CCSD
 
 T1 diagnostic:      1.160E-02            D1 diagnostic:      3.230E-02
 
 CCSD correlation energy [au]:          -0.051613191493
 
 CPU time [min]:  1473.304                   Wall time [min]:    22.991
 
 Calculation of (T) correction...
 
 Laplace threshold, nquadmin:  1.00E-01   2
 Number of quadrature points:    2
 
     2751.56 MB memory is utilized for (T)

 0%       25%       50%       75%       100%
 |---------|---------|---------|---------| 
 
 (T) correction [au]:                   -0.002709442614
 CCSD(T) correlation energy [au]:       -0.054322634107
 
 CPU time [min]:  1531.383                   Wall time [min]:    23.857
 
 **********************************************************************
 Dimensions of the extended domains:    Minimum / Average / Maximum
 
 Number of atoms in domain:                  25      25.0        25
 Number of atomic orbitals:                 545     545.0       545
 Number of fitting functions:              2817    3050.0      3725
 Number of occupied localized MOs:           13      26.9        97
 Number of PAOs:                            374     392.8       424
 Number of occupied LNOs:                     4      11.2        52
 Number of virtual  LNOs:                     5      28.9       144
 Number of NAFs:                             22      96.2       552
 
 **********************************************************************
 Distant (and weak) pair contributions, corrections
 
 Sum of pair energies [au]:                    -0.014358357678    (0.341%)
 Sum of energy corrections [au]:               -0.087027267003    (2.067%)
 Pair energies + LNO corrections [au]:         -0.101385624681
 Sum of LMP2 contributions [au]:               -4.210330547410
 
 **********************************************************************
  Time of manipulations in the EDs:      max CPU/Wall [s]  all CPU/Wall [min]
 
 PD construction & multipole pair E    1226.54    17.55    20.44     0.29
 Construct MO basis of the ED            23.23     0.31    28.10     0.37
 (mu,nu|P) evaluation & trf 2 (ai|P)   1419.37    18.98   593.44     7.84
 Evaluate MP2 energy of the ED           78.02     1.03    30.97     0.41
 Transformations to the LNO basis        52.40     0.71    19.15     0.26
 Build W_PQ (Jai or Jpi part)            12.06     0.18     8.65     0.12
 Evaluate MP2 energy of the LIS           2.78     0.04     0.34     0.00
 (mu,nu|P) evaluation & trf 2 J(abQ)   2254.01    37.21   626.85    11.51
 Total of the above for all EDs        3841.87    58.45  1307.48    20.52
 
 **********************************************************************
 Maximum memory requirement [MB]:       
 
 PD construction & multipole pair E        149.9
 AO integral evaluation in the EDs        1370.3
 (mu,nu|P) evaluation & trf 2 (aI|P)      6908.9
 Evaluate MP2 energy in the EDs           3307.8
 Transformation to the LNO basis          1764.8
 (mu,nu|P) to Jab transformation          2578.0
 Evaluate MP2 energy in the LIS           1841.5
 Minimum requirement for LIS CCSD          983.5
 Actually allocated  for LIS CCSD         2576.8
 Minimum requirement for LIS (T)          1304.9
 Actually allocated  for LIS (T)          2751.6
 
 ======================================================================
 ======================================================================
 
 
 
 ======================================================================
 ======================================================================
 
 Final local CC results:
 
 Minimum number of correlated electrons:         8       (  4.1%)
 Maximum number of correlated electrons:       104       ( 53.6%)
 Average number of correlated electrons:        22.4     ( 11.5%)
 Minimum number of correlated orbitals:          9       (  1.7%)
 Maximum number of correlated orbitals:        196       ( 37.6%)
 Average number of correlated orbitals:         40.1     (  7.7%)
 
 CPU time for integral calculations [min]:                  6.596
 Wall time for integral calculations [min]:                 2.295
 
 CPU time for SCF calculation [min]:                      213.085
 Wall time for SCF calculation [min]:                       2.825
 
 CPU time for orbital localization [min]:                   0.548
 Wall time for orbital localization [min]:                  0.069
 
 CPU time for integral transformations [min]:            1358.999
 Wall time for integral transformations [min]:             21.241
 
 Reference energy [au]:                                -12206.715139965392
 
 LMP2 correlation energy [au]:                             -4.210330547410
 Total LMP2 energy [au]:                               -12210.925470512802
 
 Total MP2 correction for dropped NAFs [au]:                0.001894760425
 Total MP2 correction [au]:                                -0.099490864256
 
 CPU time for CCSD calculations [min]:                     77.711
 Total CPU time for CCSD [min]:                          1656.940
 Wall time for CCSD calculations [min]:                     1.217
 Total wall time for CCSD [min]:                           27.647
 
 CCSD correlation energy [au]:                             -4.160535905639
 Total CCSD energy [au]:                               -12210.875675871031
 CCSD correlation energy + 0.5 MP2 corrections [au]:       -4.210281337767
 Total LNO-CCSD energy with MP2 corrections [au]:      -12210.925421303160
 
 CPU time for (T) corrections [min]:                       94.675
 Total CPU time for CCSD(T) [min]:                       1751.615
 Wall time for (T) corrections [min]:                       1.400
 Total wall time for CCSD(T) [min]:                        29.046
 
 Total (T) correlation energy contribution [au]:           -0.098773441401
 Total (T) correlation energy+0.5 MP2 correction [au]:     -0.148518873529
 CCSD(T) correlation energy [au]:                          -4.259309347040
 Total CCSD(T) energy [au]:                            -12210.974449312433
 CCSD(T) correlation energy + MP2 corrections [au]:        -4.358800211296
 Total LNO-CCSD(T) energy with MP2 corrections [au]:   -12211.073940176688
 
 ======================================================================
 ======================================================================
 
 ************************ 2021-11-04 23:38:42 *************************
                      Normal termination of mrcc.
 **********************************************************************
