 **********************************************************************
                          MRCC program system
 **********************************************************************
 
                              Written by
 Mihaly Kallay, Peter R. Nagy, David Mester, Zoltan Rolik, Gyula Samu,
   Jozsef Csontos, Jozsef Csoka, P. Bernat Szabo, Laszlo Gyevi-Nagy,
    Bence Hegely, Istvan Ladjanszki, Lorant Szegedy, Bence Ladoczki,
       Klara Petrov, Mate Farkas, Pal D. Mezei, and Adam Ganyecz
 
        Department of Physical Chemistry and Materials Science
            Budapest University of Technology and Economics
                  Budapest P.O.Box 91, H-1521 Hungary
 
                              www.mrcc.hu
 
                    Release date: February 22, 2020

 ************************ 2022-01-10 15:16:33 *************************
 Executing minp...

 Reading input from MINP...
 
 Input file:
 
calc=LB2PLYP
scftype=rhf
verbosity=3
mem=170GB
symm=off
unit=angs
scfiguess=small
scfmaxit=1000
scfalg=locfit1

lcorthr=tight
charge=-26
core=25

basis=special
bse_AVQZ
bse_CVQZ
bse_CVQZ
bse_CVQZ
bse_CVQZ
bse_CVQZ
bse_CVQZ
bse_AVQZ
bse_AVQZ
bse_AVQZ
bse_AVQZ
bse_AVQZ
bse_AVQZ
bse_AVQZ
bse_AVQZ
bse_AVQZ
bse_AVQZ
bse_AVQZ
bse_AVQZ
bse_AVQZ
bse_AVQZ
bse_AVQZ
bse_AVQZ
bse_AVQZ
bse_AVQZ
nothing
nothing
nothing
nothing
nothing
nothing
nothing
nothing
nothing
nothing
nothing
nothing
nothing
nothing
nothing
nothing
nothing
nothing
nothing
nothing
nothing
nothing
nothing
nothing
nothing
nothing
nothing
nothing
nothing
nothing
nothing
nothing
nothing
nothing
nothing
nothing
nothing
nothing
nothing
nothing
nothing
nothing
nothing
nothing
nothing
nothing
nothing
nothing
nothing
nothing
nothing
nothing
nothing
nothing
nothing
nothing
nothing
nothing
nothing
nothing
nothing
nothing
nothing
nothing
nothing
nothing
nothing
nothing
nothing
nothing
nothing
nothing
nothing
nothing
nothing
nothing
nothing
nothing
nothing
nothing
nothing
nothing
nothing
nothing
nothing
nothing
nothing
nothing
nothing
nothing
nothing
nothing
nothing
nothing
nothing
nothing
nothing
nothing
nothing
nothing
nothing
nothing
nothing
nothing
nothing
nothing
nothing
nothing
nothing
nothing
nothing
nothing
nothing
nothing
nothing
nothing
nothing
nothing
nothing
nothing
nothing
nothing
nothing
nothing
nothing
nothing
nothing
nothing
nothing
nothing
nothing
nothing
nothing
nothing
nothing
nothing
nothing
nothing
nothing
nothing
nothing
nothing
nothing
nothing
nothing
nothing
nothing
nothing
nothing
nothing
nothing
nothing
nothing
nothing
nothing
nothing
nothing
nothing
nothing
nothing
nothing
nothing
nothing
nothing
nothing
nothing
nothing
nothing
nothing
nothing
nothing
nothing
nothing
nothing
nothing
nothing
nothing
nothing
nothing
nothing
nothing
nothing
nothing
nothing
nothing
nothing
nothing
nothing
nothing
nothing
nothing
nothing
nothing
nothing
nothing
nothing
nothing
nothing
nothing
nothing
nothing
nothing
nothing
nothing
nothing
nothing
nothing
nothing
nothing
nothing
nothing
nothing
nothing
nothing
nothing
nothing
nothing
nothing
nothing
nothing
nothing
nothing
nothing
nothing
nothing
nothing
nothing
nothing
nothing
nothing
nothing
nothing
nothing
nothing
nothing
nothing
nothing
nothing
nothing
nothing
nothing
nothing
nothing
nothing
nothing
nothing
nothing
nothing
nothing
nothing
nothing
nothing
nothing
nothing
nothing
nothing
nothing
nothing
nothing
nothing

basis_sm=special
STO-3G
STO-3G
STO-3G
STO-3G
STO-3G
STO-3G
STO-3G
STO-3G
STO-3G
STO-3G
STO-3G
STO-3G
STO-3G
STO-3G
STO-3G
STO-3G
STO-3G
STO-3G
STO-3G
STO-3G
STO-3G
STO-3G
STO-3G
STO-3G
STO-3G
nothing
nothing
nothing
nothing
nothing
nothing
nothing
nothing
nothing
nothing
nothing
nothing
nothing
nothing
nothing
nothing
nothing
nothing
nothing
nothing
nothing
nothing
nothing
nothing
nothing
nothing
nothing
nothing
nothing
nothing
nothing
nothing
nothing
nothing
nothing
nothing
nothing
nothing
nothing
nothing
nothing
nothing
nothing
nothing
nothing
nothing
nothing
nothing
nothing
nothing
nothing
nothing
nothing
nothing
nothing
nothing
nothing
nothing
nothing
nothing
nothing
nothing
nothing
nothing
nothing
nothing
nothing
nothing
nothing
nothing
nothing
nothing
nothing
nothing
nothing
nothing
nothing
nothing
nothing
nothing
nothing
nothing
nothing
nothing
nothing
nothing
nothing
nothing
nothing
nothing
nothing
nothing
nothing
nothing
nothing
nothing
nothing
nothing
nothing
nothing
nothing
nothing
nothing
nothing
nothing
nothing
nothing
nothing
nothing
nothing
nothing
nothing
nothing
nothing
nothing
nothing
nothing
nothing
nothing
nothing
nothing
nothing
nothing
nothing
nothing
nothing
nothing
nothing
nothing
nothing
nothing
nothing
nothing
nothing
nothing
nothing
nothing
nothing
nothing
nothing
nothing
nothing
nothing
nothing
nothing
nothing
nothing
nothing
nothing
nothing
nothing
nothing
nothing
nothing
nothing
nothing
nothing
nothing
nothing
nothing
nothing
nothing
nothing
nothing
nothing
nothing
nothing
nothing
nothing
nothing
nothing
nothing
nothing
nothing
nothing
nothing
nothing
nothing
nothing
nothing
nothing
nothing
nothing
nothing
nothing
nothing
nothing
nothing
nothing
nothing
nothing
nothing
nothing
nothing
nothing
nothing
nothing
nothing
nothing
nothing
nothing
nothing
nothing
nothing
nothing
nothing
nothing
nothing
nothing
nothing
nothing
nothing
nothing
nothing
nothing
nothing
nothing
nothing
nothing
nothing
nothing
nothing
nothing
nothing
nothing
nothing
nothing
nothing
nothing
nothing
nothing
nothing
nothing
nothing
nothing
nothing
nothing
nothing
nothing
nothing
nothing
nothing
nothing
nothing
nothing
nothing
nothing
nothing
nothing
nothing
nothing
nothing
nothing
nothing
nothing
nothing
nothing
nothing
nothing
nothing

dfbasis_scf=special
bse_AVQZ_autoaux
bse_CVQZ_autoaux
bse_CVQZ_autoaux
bse_CVQZ_autoaux
bse_CVQZ_autoaux
bse_CVQZ_autoaux
bse_CVQZ_autoaux
bse_AVQZ_autoaux
bse_AVQZ_autoaux
bse_AVQZ_autoaux
bse_AVQZ_autoaux
bse_AVQZ_autoaux
bse_AVQZ_autoaux
bse_AVQZ_autoaux
bse_AVQZ_autoaux
bse_AVQZ_autoaux
bse_AVQZ_autoaux
bse_AVQZ_autoaux
bse_AVQZ_autoaux
bse_AVQZ_autoaux
bse_AVQZ_autoaux
bse_AVQZ_autoaux
bse_AVQZ_autoaux
bse_AVQZ_autoaux
bse_AVQZ_autoaux
nothing
nothing
nothing
nothing
nothing
nothing
nothing
nothing
nothing
nothing
nothing
nothing
nothing
nothing
nothing
nothing
nothing
nothing
nothing
nothing
nothing
nothing
nothing
nothing
nothing
nothing
nothing
nothing
nothing
nothing
nothing
nothing
nothing
nothing
nothing
nothing
nothing
nothing
nothing
nothing
nothing
nothing
nothing
nothing
nothing
nothing
nothing
nothing
nothing
nothing
nothing
nothing
nothing
nothing
nothing
nothing
nothing
nothing
nothing
nothing
nothing
nothing
nothing
nothing
nothing
nothing
nothing
nothing
nothing
nothing
nothing
nothing
nothing
nothing
nothing
nothing
nothing
nothing
nothing
nothing
nothing
nothing
nothing
nothing
nothing
nothing
nothing
nothing
nothing
nothing
nothing
nothing
nothing
nothing
nothing
nothing
nothing
nothing
nothing
nothing
nothing
nothing
nothing
nothing
nothing
nothing
nothing
nothing
nothing
nothing
nothing
nothing
nothing
nothing
nothing
nothing
nothing
nothing
nothing
nothing
nothing
nothing
nothing
nothing
nothing
nothing
nothing
nothing
nothing
nothing
nothing
nothing
nothing
nothing
nothing
nothing
nothing
nothing
nothing
nothing
nothing
nothing
nothing
nothing
nothing
nothing
nothing
nothing
nothing
nothing
nothing
nothing
nothing
nothing
nothing
nothing
nothing
nothing
nothing
nothing
nothing
nothing
nothing
nothing
nothing
nothing
nothing
nothing
nothing
nothing
nothing
nothing
nothing
nothing
nothing
nothing
nothing
nothing
nothing
nothing
nothing
nothing
nothing
nothing
nothing
nothing
nothing
nothing
nothing
nothing
nothing
nothing
nothing
nothing
nothing
nothing
nothing
nothing
nothing
nothing
nothing
nothing
nothing
nothing
nothing
nothing
nothing
nothing
nothing
nothing
nothing
nothing
nothing
nothing
nothing
nothing
nothing
nothing
nothing
nothing
nothing
nothing
nothing
nothing
nothing
nothing
nothing
nothing
nothing
nothing
nothing
nothing
nothing
nothing
nothing
nothing
nothing
nothing
nothing
nothing
nothing
nothing
nothing
nothing
nothing
nothing
nothing
nothing
nothing
nothing
nothing
nothing
nothing
nothing
nothing
nothing
nothing
nothing
nothing
nothing

dfbasis_cor=special
bse_AVQZ_autoaux
bse_CVQZ_autoaux
bse_CVQZ_autoaux
bse_CVQZ_autoaux
bse_CVQZ_autoaux
bse_CVQZ_autoaux
bse_CVQZ_autoaux
bse_AVQZ_autoaux
bse_AVQZ_autoaux
bse_AVQZ_autoaux
bse_AVQZ_autoaux
bse_AVQZ_autoaux
bse_AVQZ_autoaux
bse_AVQZ_autoaux
bse_AVQZ_autoaux
bse_AVQZ_autoaux
bse_AVQZ_autoaux
bse_AVQZ_autoaux
bse_AVQZ_autoaux
bse_AVQZ_autoaux
bse_AVQZ_autoaux
bse_AVQZ_autoaux
bse_AVQZ_autoaux
bse_AVQZ_autoaux
bse_AVQZ_autoaux
nothing
nothing
nothing
nothing
nothing
nothing
nothing
nothing
nothing
nothing
nothing
nothing
nothing
nothing
nothing
nothing
nothing
nothing
nothing
nothing
nothing
nothing
nothing
nothing
nothing
nothing
nothing
nothing
nothing
nothing
nothing
nothing
nothing
nothing
nothing
nothing
nothing
nothing
nothing
nothing
nothing
nothing
nothing
nothing
nothing
nothing
nothing
nothing
nothing
nothing
nothing
nothing
nothing
nothing
nothing
nothing
nothing
nothing
nothing
nothing
nothing
nothing
nothing
nothing
nothing
nothing
nothing
nothing
nothing
nothing
nothing
nothing
nothing
nothing
nothing
nothing
nothing
nothing
nothing
nothing
nothing
nothing
nothing
nothing
nothing
nothing
nothing
nothing
nothing
nothing
nothing
nothing
nothing
nothing
nothing
nothing
nothing
nothing
nothing
nothing
nothing
nothing
nothing
nothing
nothing
nothing
nothing
nothing
nothing
nothing
nothing
nothing
nothing
nothing
nothing
nothing
nothing
nothing
nothing
nothing
nothing
nothing
nothing
nothing
nothing
nothing
nothing
nothing
nothing
nothing
nothing
nothing
nothing
nothing
nothing
nothing
nothing
nothing
nothing
nothing
nothing
nothing
nothing
nothing
nothing
nothing
nothing
nothing
nothing
nothing
nothing
nothing
nothing
nothing
nothing
nothing
nothing
nothing
nothing
nothing
nothing
nothing
nothing
nothing
nothing
nothing
nothing
nothing
nothing
nothing
nothing
nothing
nothing
nothing
nothing
nothing
nothing
nothing
nothing
nothing
nothing
nothing
nothing
nothing
nothing
nothing
nothing
nothing
nothing
nothing
nothing
nothing
nothing
nothing
nothing
nothing
nothing
nothing
nothing
nothing
nothing
nothing
nothing
nothing
nothing
nothing
nothing
nothing
nothing
nothing
nothing
nothing
nothing
nothing
nothing
nothing
nothing
nothing
nothing
nothing
nothing
nothing
nothing
nothing
nothing
nothing
nothing
nothing
nothing
nothing
nothing
nothing
nothing
nothing
nothing
nothing
nothing
nothing
nothing
nothing
nothing
nothing
nothing
nothing
nothing
nothing
nothing
nothing
nothing
nothing
nothing
nothing
nothing
nothing
nothing
nothing
nothing
nothing
nothing
nothing

ecp=special
none
none
none
none
none
none
none
none
none
none
none
none
none
none
none
none
none
none
none
none
none
none
none
none
none
ECP-12
ECP-12
ECP-12
ECP-12
ECP-12
ECP-12
ECP-12
ECP-12
ECP-12
ECP-12
ECP-12
ECP-12
ECP-12
ECP-12
ECP-12
ECP-12
ECP-12
ECP-12
ECP-12
ECP-12
ECP-12
ECP-12
ECP-12
ECP-12
ECP-12
ECP-12
ECP-12
ECP-12
ECP-12
ECP-12
ECP-12
ECP-12
ECP-12
ECP-12
ECP-12
ECP-12
ECP-12
ECP-12
ECP-12
ECP-12
ECP-12
ECP-12
ECP-12
ECP-12
ECP-12
ECP-12
ECP-12
ECP-12
ECP-12
ECP-12
ECP-12
ECP-12
ECP-12
ECP-12
ECP-12
ECP-12
ECP-12
ECP-12
ECP-12
ECP-12
ECP-12
ECP-12
ECP-12
ECP-12
ECP-12
ECP-12
ECP-12
ECP-12
ECP-12
ECP-12
ECP-12
ECP-12
ECP-12
ECP-12
ECP-12
ECP-12
ECP-12
ECP-12
ECP-12
ECP-12
ECP-12
ECP-12
ECP-12
ECP-12
ECP-12
ECP-12
ECP-12
ECP-12
ECP-12
ECP-12
ECP-12
ECP-12
ECP-12
ECP-12
ECP-12
ECP-12
ECP-12
ECP-12
ECP-12
ECP-12
ECP-12
ECP-12
ECP-12
ECP-12
ECP-12
ECP-12
ECP-12
ECP-12
ECP-12
ECP-12
ECP-12
ECP-12
ECP-12
ECP-12
ECP-12
ECP-12
ECP-12
ECP-12
ECP-12
ECP-12
ECP-12
ECP-12
ECP-12
ECP-12
ECP-12
ECP-12
ECP-12
ECP-12
ECP-12
ECP-12
ECP-12
ECP-12
ECP-12
ECP-12
ECP-12
ECP-12
ECP-12
ECP-12
ECP-12
ECP-12
ECP-12
ECP-12
ECP-12
ECP-12
ECP-12
ECP-12
ECP-12
ECP-12
ECP-12
ECP-12
ECP-12
ECP-12
ECP-12
ECP-12
ECP-12
ECP-12
ECP-12
ECP-12
ECP-12
ECP-12
ECP-12
ECP-12
ECP-12
ECP-12
ECP-12
ECP-12
ECP-12
ECP-12
ECP-12
ECP-12
ECP-12
ECP-12
ECP-12
ECP-12
ECP-12
ECP-12
ECP-12
ECP-12
ECP-12
ECP-12
ECP-12
ECP-12
ECP-12
ECP-12
ECP-12
ECP-12
ECP-12
ECP-12
ECP-12
ECP-12
ECP-12
ECP-12
ECP-12
ECP-12
ECP-12
ECP-12
ECP-12
ECP-12
ECP-12
ECP-12
ECP-12
ECP-12
ECP-12
ECP-12
ECP-12
ECP-12
ECP-12
ECP-12
ECP-12
ECP-12
ECP-12
ECP-12
ECP-12
ECP-12
ECP-12
ECP-12
ECP-12
ECP-12
ECP-12
ECP-12
ECP-12
ECP-12
ECP-12
ECP-12
ECP-12
ECP-12
ECP-12
ECP-12
ECP-12
ECP-12
ECP-12
ECP-12
ECP-12
ECP-12
ECP-12
ECP-12
ECP-12
ECP-12
ECP-12
ECP-12
ECP-12
ECP-12
ECP-12
ECP-12
ECP-12
ECP-12
ECP-12
ECP-12
ECP-12
ECP-12
ECP-12
ECP-12
ECP-12
ECP-12
ECP-12
ECP-12
ECP-12
ECP-12
ECP-12
ECP-12

unit=angs
geom=xyz
285
Mg6O19ECP260
O     0.00000000000    0.00000000000    0.00000000000
Mg    0.00000000000    0.00000000000    2.10322906414
Mg   -2.10322906414    0.00000000000    0.00000000000
Mg    0.00000000000    2.10322906414    0.00000000000
Mg    2.10322906414    0.00000000000    0.00000000000
Mg    0.00000000000   -2.10322906414    0.00000000000
Mg    0.00000000000    0.00000000000   -2.10322906414
O    -2.10322906414    0.00000000000    2.10322906414
O     0.00000000000    2.10322906414    2.10322906414
O     2.10322906414    0.00000000000    2.10322906414
O     0.00000000000   -2.10322906414    2.10322906414
O    -2.10322906414    2.10322906414    0.00000000000
O     2.10322906414    2.10322906414    0.00000000000
O     2.10322906414   -2.10322906414    0.00000000000
O    -2.10322906414   -2.10322906414    0.00000000000
O    -2.10322906414    0.00000000000   -2.10322906414
O     0.00000000000    2.10322906414   -2.10322906414
O     2.10322906414    0.00000000000   -2.10322906414
O     0.00000000000   -2.10322906414   -2.10322906414
O     0.00000000000    0.00000000000    4.20645812828
O    -4.20645812828    0.00000000000    0.00000000000
O     0.00000000000    4.20645812828    0.00000000000
O     4.20645812828    0.00000000000    0.00000000000
O     0.00000000000   -4.20645812828    0.00000000000
O     0.00000000000    0.00000000000   -4.20645812828
Mg   -2.10322906414    2.10322906414    2.10322906414
Mg    2.10322906414    2.10322906414    2.10322906414
Mg    2.10322906414   -2.10322906414    2.10322906414
Mg   -2.10322906414   -2.10322906414    2.10322906414
Mg   -2.10322906414    2.10322906414   -2.10322906414
Mg    2.10322906414    2.10322906414   -2.10322906414
Mg    2.10322906414   -2.10322906414   -2.10322906414
Mg   -2.10322906414   -2.10322906414   -2.10322906414
Mg   -2.10322906414    0.00000000000    4.20645812828
Mg    0.00000000000    2.10322906414    4.20645812828
Mg    2.10322906414    0.00000000000    4.20645812828
Mg    0.00000000000   -2.10322906414    4.20645812828
Mg   -4.20645812828    0.00000000000    2.10322906414
Mg    0.00000000000    4.20645812828    2.10322906414
Mg    4.20645812828    0.00000000000    2.10322906414
Mg    0.00000000000   -4.20645812828    2.10322906414
Mg   -4.20645812828    2.10322906414    0.00000000000
Mg   -2.10322906414    4.20645812828    0.00000000000
Mg    2.10322906414    4.20645812828    0.00000000000
Mg    4.20645812828    2.10322906414    0.00000000000
Mg    4.20645812828   -2.10322906414    0.00000000000
Mg    2.10322906414   -4.20645812828    0.00000000000
Mg   -2.10322906414   -4.20645812828    0.00000000000
Mg   -4.20645812828   -2.10322906414    0.00000000000
Mg   -4.20645812828    0.00000000000   -2.10322906414
Mg    0.00000000000    4.20645812828   -2.10322906414
Mg    4.20645812828    0.00000000000   -2.10322906414
Mg    0.00000000000   -4.20645812828   -2.10322906414
Mg   -2.10322906414    0.00000000000   -4.20645812828
Mg    0.00000000000    2.10322906414   -4.20645812828
Mg    2.10322906414    0.00000000000   -4.20645812828
Mg    0.00000000000   -2.10322906414   -4.20645812828
Mg    0.00000000000    0.00000000000    6.30968719243
Mg   -4.20645812828    2.10322906414    4.20645812828
Mg   -2.10322906414    4.20645812828    4.20645812828
Mg    2.10322906414    4.20645812828    4.20645812828
Mg    4.20645812828    2.10322906414    4.20645812828
Mg    4.20645812828   -2.10322906414    4.20645812828
Mg    2.10322906414   -4.20645812828    4.20645812828
Mg   -2.10322906414   -4.20645812828    4.20645812828
Mg   -4.20645812828   -2.10322906414    4.20645812828
Mg   -4.20645812828    4.20645812828    2.10322906414
Mg    4.20645812828    4.20645812828    2.10322906414
Mg    4.20645812828   -4.20645812828    2.10322906414
Mg   -4.20645812828   -4.20645812828    2.10322906414
Mg   -6.30968719243    0.00000000000    0.00000000000
Mg    0.00000000000    6.30968719243    0.00000000000
Mg    6.30968719243    0.00000000000    0.00000000000
Mg    0.00000000000   -6.30968719243    0.00000000000
Mg   -4.20645812828    4.20645812828   -2.10322906414
Mg    4.20645812828    4.20645812828   -2.10322906414
Mg    4.20645812828   -4.20645812828   -2.10322906414
Mg   -4.20645812828   -4.20645812828   -2.10322906414
Mg   -4.20645812828    2.10322906414   -4.20645812828
Mg   -2.10322906414    4.20645812828   -4.20645812828
Mg    2.10322906414    4.20645812828   -4.20645812828
Mg    4.20645812828    2.10322906414   -4.20645812828
Mg    4.20645812828   -2.10322906414   -4.20645812828
Mg    2.10322906414   -4.20645812828   -4.20645812828
Mg   -2.10322906414   -4.20645812828   -4.20645812828
Mg   -4.20645812828   -2.10322906414   -4.20645812828
Mg    0.00000000000    0.00000000000   -6.30968719243
Mg   -2.10322906414    2.10322906414    6.30968719243
Mg    2.10322906414    2.10322906414    6.30968719243
Mg    2.10322906414   -2.10322906414    6.30968719243
Mg   -2.10322906414   -2.10322906414    6.30968719243
Mg   -6.30968719243    2.10322906414    2.10322906414
Mg   -2.10322906414    6.30968719243    2.10322906414
Mg    2.10322906414    6.30968719243    2.10322906414
Mg    6.30968719243    2.10322906414    2.10322906414
Mg    6.30968719243   -2.10322906414    2.10322906414
Mg    2.10322906414   -6.30968719243    2.10322906414
Mg   -2.10322906414   -6.30968719243    2.10322906414
Mg   -6.30968719243   -2.10322906414    2.10322906414
Mg   -6.30968719243    2.10322906414   -2.10322906414
Mg   -2.10322906414    6.30968719243   -2.10322906414
Mg    2.10322906414    6.30968719243   -2.10322906414
Mg    6.30968719243    2.10322906414   -2.10322906414
Mg    6.30968719243   -2.10322906414   -2.10322906414
Mg    2.10322906414   -6.30968719243   -2.10322906414
Mg   -2.10322906414   -6.30968719243   -2.10322906414
Mg   -6.30968719243   -2.10322906414   -2.10322906414
Mg   -2.10322906414    2.10322906414   -6.30968719243
Mg    2.10322906414    2.10322906414   -6.30968719243
Mg    2.10322906414   -2.10322906414   -6.30968719243
Mg   -2.10322906414   -2.10322906414   -6.30968719243
Mg   -4.20645812828    0.00000000000    6.30968719243
Mg    0.00000000000    4.20645812828    6.30968719243
Mg    4.20645812828    0.00000000000    6.30968719243
Mg    0.00000000000   -4.20645812828    6.30968719243
Mg   -6.30968719243    0.00000000000    4.20645812828
Mg    0.00000000000    6.30968719243    4.20645812828
Mg    6.30968719243    0.00000000000    4.20645812828
Mg    0.00000000000   -6.30968719243    4.20645812828
Mg   -6.30968719243    4.20645812828    0.00000000000
Mg   -4.20645812828    6.30968719243    0.00000000000
Mg    4.20645812828    6.30968719243    0.00000000000
Mg    6.30968719243    4.20645812828    0.00000000000
Mg    6.30968719243   -4.20645812828    0.00000000000
Mg    4.20645812828   -6.30968719243    0.00000000000
Mg   -4.20645812828   -6.30968719243    0.00000000000
Mg   -6.30968719243   -4.20645812828    0.00000000000
Mg   -6.30968719243    0.00000000000   -4.20645812828
Mg    0.00000000000    6.30968719243   -4.20645812828
Mg    6.30968719243    0.00000000000   -4.20645812828
Mg    0.00000000000   -6.30968719243   -4.20645812828
Mg   -4.20645812828    0.00000000000   -6.30968719243
Mg    0.00000000000    4.20645812828   -6.30968719243
Mg    4.20645812828    0.00000000000   -6.30968719243
Mg    0.00000000000   -4.20645812828   -6.30968719243
Mg   -2.10322906414    0.00000000000    8.41291625657
Mg    0.00000000000    2.10322906414    8.41291625657
Mg    2.10322906414    0.00000000000    8.41291625657
Mg    0.00000000000   -2.10322906414    8.41291625657
Mg   -4.20645812828    4.20645812828    6.30968719243
Mg    4.20645812828    4.20645812828    6.30968719243
Mg    4.20645812828   -4.20645812828    6.30968719243
Mg   -4.20645812828   -4.20645812828    6.30968719243
Mg   -6.30968719243    4.20645812828    4.20645812828
Mg   -4.20645812828    6.30968719243    4.20645812828
Mg    4.20645812828    6.30968719243    4.20645812828
Mg    6.30968719243    4.20645812828    4.20645812828
Mg    6.30968719243   -4.20645812828    4.20645812828
Mg    4.20645812828   -6.30968719243    4.20645812828
Mg   -4.20645812828   -6.30968719243    4.20645812828
Mg   -6.30968719243   -4.20645812828    4.20645812828
Mg   -8.41291625657    0.00000000000    2.10322906414
Mg    0.00000000000    8.41291625657    2.10322906414
Mg    8.41291625657    0.00000000000    2.10322906414
Mg    0.00000000000   -8.41291625657    2.10322906414
Mg   -8.41291625657    2.10322906414    0.00000000000
Mg   -2.10322906414    8.41291625657    0.00000000000
Mg    2.10322906414    8.41291625657    0.00000000000
Mg    8.41291625657    2.10322906414    0.00000000000
Mg    8.41291625657   -2.10322906414    0.00000000000
Mg    2.10322906414   -8.41291625657    0.00000000000
Mg   -2.10322906414   -8.41291625657    0.00000000000
Mg   -8.41291625657   -2.10322906414    0.00000000000
Mg   -8.41291625657    0.00000000000   -2.10322906414
Mg    0.00000000000    8.41291625657   -2.10322906414
Mg    8.41291625657    0.00000000000   -2.10322906414
Mg    0.00000000000   -8.41291625657   -2.10322906414
Mg   -6.30968719243    4.20645812828   -4.20645812828
Mg   -4.20645812828    6.30968719243   -4.20645812828
Mg    4.20645812828    6.30968719243   -4.20645812828
Mg    6.30968719243    4.20645812828   -4.20645812828
Mg    6.30968719243   -4.20645812828   -4.20645812828
Mg    4.20645812828   -6.30968719243   -4.20645812828
Mg   -4.20645812828   -6.30968719243   -4.20645812828
Mg   -6.30968719243   -4.20645812828   -4.20645812828
Mg   -4.20645812828    4.20645812828   -6.30968719243
Mg    4.20645812828    4.20645812828   -6.30968719243
Mg    4.20645812828   -4.20645812828   -6.30968719243
Mg   -4.20645812828   -4.20645812828   -6.30968719243
Mg   -2.10322906414    0.00000000000   -8.41291625657
Mg    0.00000000000    2.10322906414   -8.41291625657
Mg    2.10322906414    0.00000000000   -8.41291625657
Mg    0.00000000000   -2.10322906414   -8.41291625657
Mg   -6.30968719243    2.10322906414    6.30968719243
Mg   -2.10322906414    6.30968719243    6.30968719243
Mg    2.10322906414    6.30968719243    6.30968719243
Mg    6.30968719243    2.10322906414    6.30968719243
Mg    6.30968719243   -2.10322906414    6.30968719243
Mg    2.10322906414   -6.30968719243    6.30968719243
Mg   -2.10322906414   -6.30968719243    6.30968719243
Mg   -6.30968719243   -2.10322906414    6.30968719243
Mg   -6.30968719243    6.30968719243    2.10322906414
Mg    6.30968719243    6.30968719243    2.10322906414
Mg    6.30968719243   -6.30968719243    2.10322906414
Mg   -6.30968719243   -6.30968719243    2.10322906414
Mg   -6.30968719243    6.30968719243   -2.10322906414
Mg    6.30968719243    6.30968719243   -2.10322906414
Mg    6.30968719243   -6.30968719243   -2.10322906414
Mg   -6.30968719243   -6.30968719243   -2.10322906414
Mg   -6.30968719243    2.10322906414   -6.30968719243
Mg   -2.10322906414    6.30968719243   -6.30968719243
Mg    2.10322906414    6.30968719243   -6.30968719243
Mg    6.30968719243    2.10322906414   -6.30968719243
Mg    6.30968719243   -2.10322906414   -6.30968719243
Mg    2.10322906414   -6.30968719243   -6.30968719243
Mg   -2.10322906414   -6.30968719243   -6.30968719243
Mg   -6.30968719243   -2.10322906414   -6.30968719243
Mg   -4.20645812828    2.10322906414    8.41291625657
Mg   -2.10322906414    4.20645812828    8.41291625657
Mg    2.10322906414    4.20645812828    8.41291625657
Mg    4.20645812828    2.10322906414    8.41291625657
Mg    4.20645812828   -2.10322906414    8.41291625657
Mg    2.10322906414   -4.20645812828    8.41291625657
Mg   -2.10322906414   -4.20645812828    8.41291625657
Mg   -4.20645812828   -2.10322906414    8.41291625657
Mg   -8.41291625657    2.10322906414    4.20645812828
Mg   -2.10322906414    8.41291625657    4.20645812828
Mg    2.10322906414    8.41291625657    4.20645812828
Mg    8.41291625657    2.10322906414    4.20645812828
Mg    8.41291625657   -2.10322906414    4.20645812828
Mg    2.10322906414   -8.41291625657    4.20645812828
Mg   -2.10322906414   -8.41291625657    4.20645812828
Mg   -8.41291625657   -2.10322906414    4.20645812828
Mg   -8.41291625657    4.20645812828    2.10322906414
Mg   -4.20645812828    8.41291625657    2.10322906414
Mg    4.20645812828    8.41291625657    2.10322906414
Mg    8.41291625657    4.20645812828    2.10322906414
Mg    8.41291625657   -4.20645812828    2.10322906414
Mg    4.20645812828   -8.41291625657    2.10322906414
Mg   -4.20645812828   -8.41291625657    2.10322906414
Mg   -8.41291625657   -4.20645812828    2.10322906414
Mg   -8.41291625657    4.20645812828   -2.10322906414
Mg   -4.20645812828    8.41291625657   -2.10322906414
Mg    4.20645812828    8.41291625657   -2.10322906414
Mg    8.41291625657    4.20645812828   -2.10322906414
Mg    8.41291625657   -4.20645812828   -2.10322906414
Mg    4.20645812828   -8.41291625657   -2.10322906414
Mg   -4.20645812828   -8.41291625657   -2.10322906414
Mg   -8.41291625657   -4.20645812828   -2.10322906414
Mg   -8.41291625657    2.10322906414   -4.20645812828
Mg   -2.10322906414    8.41291625657   -4.20645812828
Mg    2.10322906414    8.41291625657   -4.20645812828
Mg    8.41291625657    2.10322906414   -4.20645812828
Mg    8.41291625657   -2.10322906414   -4.20645812828
Mg    2.10322906414   -8.41291625657   -4.20645812828
Mg   -2.10322906414   -8.41291625657   -4.20645812828
Mg   -8.41291625657   -2.10322906414   -4.20645812828
Mg   -4.20645812828    2.10322906414   -8.41291625657
Mg   -2.10322906414    4.20645812828   -8.41291625657
Mg    2.10322906414    4.20645812828   -8.41291625657
Mg    4.20645812828    2.10322906414   -8.41291625657
Mg    4.20645812828   -2.10322906414   -8.41291625657
Mg    2.10322906414   -4.20645812828   -8.41291625657
Mg   -2.10322906414   -4.20645812828   -8.41291625657
Mg   -4.20645812828   -2.10322906414   -8.41291625657
Mg    0.00000000000    0.00000000000   10.51614532071
Mg  -10.51614532071    0.00000000000    0.00000000000
Mg    0.00000000000   10.51614532071    0.00000000000
Mg   10.51614532071    0.00000000000    0.00000000000
Mg    0.00000000000  -10.51614532071    0.00000000000
Mg    0.00000000000    0.00000000000  -10.51614532071
Mg   -2.10322906414    2.10322906414   10.51614532071
Mg    2.10322906414    2.10322906414   10.51614532071
Mg    2.10322906414   -2.10322906414   10.51614532071
Mg   -2.10322906414   -2.10322906414   10.51614532071
Mg  -10.51614532071    2.10322906414    2.10322906414
Mg   -2.10322906414   10.51614532071    2.10322906414
Mg    2.10322906414   10.51614532071    2.10322906414
Mg   10.51614532071    2.10322906414    2.10322906414
Mg   10.51614532071   -2.10322906414    2.10322906414
Mg    2.10322906414  -10.51614532071    2.10322906414
Mg   -2.10322906414  -10.51614532071    2.10322906414
Mg  -10.51614532071   -2.10322906414    2.10322906414
Mg  -10.51614532071    2.10322906414   -2.10322906414
Mg   -2.10322906414   10.51614532071   -2.10322906414
Mg    2.10322906414   10.51614532071   -2.10322906414
Mg   10.51614532071    2.10322906414   -2.10322906414
Mg   10.51614532071   -2.10322906414   -2.10322906414
Mg    2.10322906414  -10.51614532071   -2.10322906414
Mg   -2.10322906414  -10.51614532071   -2.10322906414
Mg  -10.51614532071   -2.10322906414   -2.10322906414
Mg   -2.10322906414    2.10322906414  -10.51614532071
Mg    2.10322906414    2.10322906414  -10.51614532071
Mg    2.10322906414   -2.10322906414  -10.51614532071
Mg   -2.10322906414   -2.10322906414  -10.51614532071

qmmm=Amber
pointcharges
12124
     -2.10322906414    2.10322906414    2.10322906414    2.00000000000
      2.10322906414    2.10322906414    2.10322906414    2.00000000000
      2.10322906414   -2.10322906414    2.10322906414    2.00000000000
     -2.10322906414   -2.10322906414    2.10322906414    2.00000000000
     -2.10322906414    2.10322906414   -2.10322906414    2.00000000000
      2.10322906414    2.10322906414   -2.10322906414    2.00000000000
      2.10322906414   -2.10322906414   -2.10322906414    2.00000000000
     -2.10322906414   -2.10322906414   -2.10322906414    2.00000000000
     -2.10322906414    0.00000000000    4.20645812828    2.00000000000
      0.00000000000    2.10322906414    4.20645812828    2.00000000000
      2.10322906414    0.00000000000    4.20645812828    2.00000000000
      0.00000000000   -2.10322906414    4.20645812828    2.00000000000
     -4.20645812828    0.00000000000    2.10322906414    2.00000000000
      0.00000000000    4.20645812828    2.10322906414    2.00000000000
      4.20645812828    0.00000000000    2.10322906414    2.00000000000
      0.00000000000   -4.20645812828    2.10322906414    2.00000000000
     -4.20645812828    2.10322906414    0.00000000000    2.00000000000
     -2.10322906414    4.20645812828    0.00000000000    2.00000000000
      2.10322906414    4.20645812828    0.00000000000    2.00000000000
      4.20645812828    2.10322906414    0.00000000000    2.00000000000
      4.20645812828   -2.10322906414    0.00000000000    2.00000000000
      2.10322906414   -4.20645812828    0.00000000000    2.00000000000
     -2.10322906414   -4.20645812828    0.00000000000    2.00000000000
     -4.20645812828   -2.10322906414    0.00000000000    2.00000000000
     -4.20645812828    0.00000000000   -2.10322906414    2.00000000000
      0.00000000000    4.20645812828   -2.10322906414    2.00000000000
      4.20645812828    0.00000000000   -2.10322906414    2.00000000000
      0.00000000000   -4.20645812828   -2.10322906414    2.00000000000
     -2.10322906414    0.00000000000   -4.20645812828    2.00000000000
      0.00000000000    2.10322906414   -4.20645812828    2.00000000000
      2.10322906414    0.00000000000   -4.20645812828    2.00000000000
      0.00000000000   -2.10322906414   -4.20645812828    2.00000000000
     -2.10322906414    2.10322906414    4.20645812828   -2.00000000000
      2.10322906414    2.10322906414    4.20645812828   -2.00000000000
      2.10322906414   -2.10322906414    4.20645812828   -2.00000000000
     -2.10322906414   -2.10322906414    4.20645812828   -2.00000000000
     -4.20645812828    2.10322906414    2.10322906414   -2.00000000000
     -2.10322906414    4.20645812828    2.10322906414   -2.00000000000
      2.10322906414    4.20645812828    2.10322906414   -2.00000000000
      4.20645812828    2.10322906414    2.10322906414   -2.00000000000
      4.20645812828   -2.10322906414    2.10322906414   -2.00000000000
      2.10322906414   -4.20645812828    2.10322906414   -2.00000000000
     -2.10322906414   -4.20645812828    2.10322906414   -2.00000000000
     -4.20645812828   -2.10322906414    2.10322906414   -2.00000000000
     -4.20645812828    2.10322906414   -2.10322906414   -2.00000000000
     -2.10322906414    4.20645812828   -2.10322906414   -2.00000000000
      2.10322906414    4.20645812828   -2.10322906414   -2.00000000000
      4.20645812828    2.10322906414   -2.10322906414   -2.00000000000
      4.20645812828   -2.10322906414   -2.10322906414   -2.00000000000
      2.10322906414   -4.20645812828   -2.10322906414   -2.00000000000
     -2.10322906414   -4.20645812828   -2.10322906414   -2.00000000000
     -4.20645812828   -2.10322906414   -2.10322906414   -2.00000000000
     -2.10322906414    2.10322906414   -4.20645812828   -2.00000000000
      2.10322906414    2.10322906414   -4.20645812828   -2.00000000000
      2.10322906414   -2.10322906414   -4.20645812828   -2.00000000000
     -2.10322906414   -2.10322906414   -4.20645812828   -2.00000000000
     -4.20645812828    0.00000000000    4.20645812828   -2.00000000000
      0.00000000000    4.20645812828    4.20645812828   -2.00000000000
      4.20645812828    0.00000000000    4.20645812828   -2.00000000000
      0.00000000000   -4.20645812828    4.20645812828   -2.00000000000
     -4.20645812828    4.20645812828    0.00000000000   -2.00000000000
      4.20645812828    4.20645812828    0.00000000000   -2.00000000000
      4.20645812828   -4.20645812828    0.00000000000   -2.00000000000
     -4.20645812828   -4.20645812828    0.00000000000   -2.00000000000
     -4.20645812828    0.00000000000   -4.20645812828   -2.00000000000
      0.00000000000    4.20645812828   -4.20645812828   -2.00000000000
      4.20645812828    0.00000000000   -4.20645812828   -2.00000000000
      0.00000000000   -4.20645812828   -4.20645812828   -2.00000000000
      0.00000000000    0.00000000000    6.30968719243    2.00000000000
     -4.20645812828    2.10322906414    4.20645812828    2.00000000000
     -2.10322906414    4.20645812828    4.20645812828    2.00000000000
      2.10322906414    4.20645812828    4.20645812828    2.00000000000
      4.20645812828    2.10322906414    4.20645812828    2.00000000000
      4.20645812828   -2.10322906414    4.20645812828    2.00000000000
      2.10322906414   -4.20645812828    4.20645812828    2.00000000000
     -2.10322906414   -4.20645812828    4.20645812828    2.00000000000
     -4.20645812828   -2.10322906414    4.20645812828    2.00000000000
     -4.20645812828    4.20645812828    2.10322906414    2.00000000000
      4.20645812828    4.20645812828    2.10322906414    2.00000000000
      4.20645812828   -4.20645812828    2.10322906414    2.00000000000
     -4.20645812828   -4.20645812828    2.10322906414    2.00000000000
     -6.30968719243    0.00000000000    0.00000000000    2.00000000000
      0.00000000000    6.30968719243    0.00000000000    2.00000000000
      6.30968719243    0.00000000000    0.00000000000    2.00000000000
      0.00000000000   -6.30968719243    0.00000000000    2.00000000000
     -4.20645812828    4.20645812828   -2.10322906414    2.00000000000
      4.20645812828    4.20645812828   -2.10322906414    2.00000000000
      4.20645812828   -4.20645812828   -2.10322906414    2.00000000000
     -4.20645812828   -4.20645812828   -2.10322906414    2.00000000000
     -4.20645812828    2.10322906414   -4.20645812828    2.00000000000
     -2.10322906414    4.20645812828   -4.20645812828    2.00000000000
      2.10322906414    4.20645812828   -4.20645812828    2.00000000000
      4.20645812828    2.10322906414   -4.20645812828    2.00000000000
      4.20645812828   -2.10322906414   -4.20645812828    2.00000000000
      2.10322906414   -4.20645812828   -4.20645812828    2.00000000000
     -2.10322906414   -4.20645812828   -4.20645812828    2.00000000000
     -4.20645812828   -2.10322906414   -4.20645812828    2.00000000000
      0.00000000000    0.00000000000   -6.30968719243    2.00000000000
     -2.10322906414    0.00000000000    6.30968719243   -2.00000000000
      0.00000000000    2.10322906414    6.30968719243   -2.00000000000
      2.10322906414    0.00000000000    6.30968719243   -2.00000000000
      0.00000000000   -2.10322906414    6.30968719243   -2.00000000000
     -6.30968719243    0.00000000000    2.10322906414   -2.00000000000
      0.00000000000    6.30968719243    2.10322906414   -2.00000000000
      6.30968719243    0.00000000000    2.10322906414   -2.00000000000
      0.00000000000   -6.30968719243    2.10322906414   -2.00000000000
     -6.30968719243    2.10322906414    0.00000000000   -2.00000000000
     -2.10322906414    6.30968719243    0.00000000000   -2.00000000000
      2.10322906414    6.30968719243    0.00000000000   -2.00000000000
      6.30968719243    2.10322906414    0.00000000000   -2.00000000000
      6.30968719243   -2.10322906414    0.00000000000   -2.00000000000
      2.10322906414   -6.30968719243    0.00000000000   -2.00000000000
     -2.10322906414   -6.30968719243    0.00000000000   -2.00000000000
     -6.30968719243   -2.10322906414    0.00000000000   -2.00000000000
     -6.30968719243    0.00000000000   -2.10322906414   -2.00000000000
      0.00000000000    6.30968719243   -2.10322906414   -2.00000000000
      6.30968719243    0.00000000000   -2.10322906414   -2.00000000000
      0.00000000000   -6.30968719243   -2.10322906414   -2.00000000000
     -2.10322906414    0.00000000000   -6.30968719243   -2.00000000000
      0.00000000000    2.10322906414   -6.30968719243   -2.00000000000
      2.10322906414    0.00000000000   -6.30968719243   -2.00000000000
      0.00000000000   -2.10322906414   -6.30968719243   -2.00000000000
     -2.10322906414    2.10322906414    6.30968719243    2.00000000000
      2.10322906414    2.10322906414    6.30968719243    2.00000000000
      2.10322906414   -2.10322906414    6.30968719243    2.00000000000
     -2.10322906414   -2.10322906414    6.30968719243    2.00000000000
     -6.30968719243    2.10322906414    2.10322906414    2.00000000000
     -2.10322906414    6.30968719243    2.10322906414    2.00000000000
      2.10322906414    6.30968719243    2.10322906414    2.00000000000
      6.30968719243    2.10322906414    2.10322906414    2.00000000000
      6.30968719243   -2.10322906414    2.10322906414    2.00000000000
      2.10322906414   -6.30968719243    2.10322906414    2.00000000000
     -2.10322906414   -6.30968719243    2.10322906414    2.00000000000
     -6.30968719243   -2.10322906414    2.10322906414    2.00000000000
     -6.30968719243    2.10322906414   -2.10322906414    2.00000000000
     -2.10322906414    6.30968719243   -2.10322906414    2.00000000000
      2.10322906414    6.30968719243   -2.10322906414    2.00000000000
      6.30968719243    2.10322906414   -2.10322906414    2.00000000000
      6.30968719243   -2.10322906414   -2.10322906414    2.00000000000
      2.10322906414   -6.30968719243   -2.10322906414    2.00000000000
     -2.10322906414   -6.30968719243   -2.10322906414    2.00000000000
     -6.30968719243   -2.10322906414   -2.10322906414    2.00000000000
     -2.10322906414    2.10322906414   -6.30968719243    2.00000000000
      2.10322906414    2.10322906414   -6.30968719243    2.00000000000
      2.10322906414   -2.10322906414   -6.30968719243    2.00000000000
     -2.10322906414   -2.10322906414   -6.30968719243    2.00000000000
     -4.20645812828    4.20645812828    4.20645812828   -2.00000000000
      4.20645812828    4.20645812828    4.20645812828   -2.00000000000
      4.20645812828   -4.20645812828    4.20645812828   -2.00000000000
     -4.20645812828   -4.20645812828    4.20645812828   -2.00000000000
     -4.20645812828    4.20645812828   -4.20645812828   -2.00000000000
      4.20645812828    4.20645812828   -4.20645812828   -2.00000000000
      4.20645812828   -4.20645812828   -4.20645812828   -2.00000000000
     -4.20645812828   -4.20645812828   -4.20645812828   -2.00000000000
     -4.20645812828    0.00000000000    6.30968719243    2.00000000000
      0.00000000000    4.20645812828    6.30968719243    2.00000000000
      4.20645812828    0.00000000000    6.30968719243    2.00000000000
      0.00000000000   -4.20645812828    6.30968719243    2.00000000000
     -6.30968719243    0.00000000000    4.20645812828    2.00000000000
      0.00000000000    6.30968719243    4.20645812828    2.00000000000
      6.30968719243    0.00000000000    4.20645812828    2.00000000000
      0.00000000000   -6.30968719243    4.20645812828    2.00000000000
     -6.30968719243    4.20645812828    0.00000000000    2.00000000000
     -4.20645812828    6.30968719243    0.00000000000    2.00000000000
      4.20645812828    6.30968719243    0.00000000000    2.00000000000
      6.30968719243    4.20645812828    0.00000000000    2.00000000000
      6.30968719243   -4.20645812828    0.00000000000    2.00000000000
      4.20645812828   -6.30968719243    0.00000000000    2.00000000000
     -4.20645812828   -6.30968719243    0.00000000000    2.00000000000
     -6.30968719243   -4.20645812828    0.00000000000    2.00000000000
     -6.30968719243    0.00000000000   -4.20645812828    2.00000000000
      0.00000000000    6.30968719243   -4.20645812828    2.00000000000
      6.30968719243    0.00000000000   -4.20645812828    2.00000000000
      0.00000000000   -6.30968719243   -4.20645812828    2.00000000000
     -4.20645812828    0.00000000000   -6.30968719243    2.00000000000
      0.00000000000    4.20645812828   -6.30968719243    2.00000000000
      4.20645812828    0.00000000000   -6.30968719243    2.00000000000
      0.00000000000   -4.20645812828   -6.30968719243    2.00000000000
     -4.20645812828    2.10322906414    6.30968719243   -2.00000000000
     -2.10322906414    4.20645812828    6.30968719243   -2.00000000000
      2.10322906414    4.20645812828    6.30968719243   -2.00000000000
      4.20645812828    2.10322906414    6.30968719243   -2.00000000000
      4.20645812828   -2.10322906414    6.30968719243   -2.00000000000
      2.10322906414   -4.20645812828    6.30968719243   -2.00000000000
     -2.10322906414   -4.20645812828    6.30968719243   -2.00000000000
     -4.20645812828   -2.10322906414    6.30968719243   -2.00000000000
     -6.30968719243    2.10322906414    4.20645812828   -2.00000000000
     -2.10322906414    6.30968719243    4.20645812828   -2.00000000000
      2.10322906414    6.30968719243    4.20645812828   -2.00000000000
      6.30968719243    2.10322906414    4.20645812828   -2.00000000000
      6.30968719243   -2.10322906414    4.20645812828   -2.00000000000
      2.10322906414   -6.30968719243    4.20645812828   -2.00000000000
     -2.10322906414   -6.30968719243    4.20645812828   -2.00000000000
     -6.30968719243   -2.10322906414    4.20645812828   -2.00000000000
     -6.30968719243    4.20645812828    2.10322906414   -2.00000000000
     -4.20645812828    6.30968719243    2.10322906414   -2.00000000000
      4.20645812828    6.30968719243    2.10322906414   -2.00000000000
      6.30968719243    4.20645812828    2.10322906414   -2.00000000000
      6.30968719243   -4.20645812828    2.10322906414   -2.00000000000
      4.20645812828   -6.30968719243    2.10322906414   -2.00000000000
     -4.20645812828   -6.30968719243    2.10322906414   -2.00000000000
     -6.30968719243   -4.20645812828    2.10322906414   -2.00000000000
     -6.30968719243    4.20645812828   -2.10322906414   -2.00000000000
     -4.20645812828    6.30968719243   -2.10322906414   -2.00000000000
      4.20645812828    6.30968719243   -2.10322906414   -2.00000000000
      6.30968719243    4.20645812828   -2.10322906414   -2.00000000000
      6.30968719243   -4.20645812828   -2.10322906414   -2.00000000000
      4.20645812828   -6.30968719243   -2.10322906414   -2.00000000000
     -4.20645812828   -6.30968719243   -2.10322906414   -2.00000000000
     -6.30968719243   -4.20645812828   -2.10322906414   -2.00000000000
     -6.30968719243    2.10322906414   -4.20645812828   -2.00000000000
     -2.10322906414    6.30968719243   -4.20645812828   -2.00000000000
      2.10322906414    6.30968719243   -4.20645812828   -2.00000000000
      6.30968719243    2.10322906414   -4.20645812828   -2.00000000000
      6.30968719243   -2.10322906414   -4.20645812828   -2.00000000000
      2.10322906414   -6.30968719243   -4.20645812828   -2.00000000000
     -2.10322906414   -6.30968719243   -4.20645812828   -2.00000000000
     -6.30968719243   -2.10322906414   -4.20645812828   -2.00000000000
     -4.20645812828    2.10322906414   -6.30968719243   -2.00000000000
     -2.10322906414    4.20645812828   -6.30968719243   -2.00000000000
      2.10322906414    4.20645812828   -6.30968719243   -2.00000000000
      4.20645812828    2.10322906414   -6.30968719243   -2.00000000000
      4.20645812828   -2.10322906414   -6.30968719243   -2.00000000000
      2.10322906414   -4.20645812828   -6.30968719243   -2.00000000000
     -2.10322906414   -4.20645812828   -6.30968719243   -2.00000000000
     -4.20645812828   -2.10322906414   -6.30968719243   -2.00000000000
      0.00000000000    0.00000000000    8.41291625657   -2.00000000000
     -8.41291625657    0.00000000000    0.00000000000   -2.00000000000
      0.00000000000    8.41291625657    0.00000000000   -2.00000000000
      8.41291625657    0.00000000000    0.00000000000   -2.00000000000
      0.00000000000   -8.41291625657    0.00000000000   -2.00000000000
      0.00000000000    0.00000000000   -8.41291625657   -2.00000000000
     -2.10322906414    0.00000000000    8.41291625657    2.00000000000
      0.00000000000    2.10322906414    8.41291625657    2.00000000000
      2.10322906414    0.00000000000    8.41291625657    2.00000000000
      0.00000000000   -2.10322906414    8.41291625657    2.00000000000
     -4.20645812828    4.20645812828    6.30968719243    2.00000000000
      4.20645812828    4.20645812828    6.30968719243    2.00000000000
      4.20645812828   -4.20645812828    6.30968719243    2.00000000000
     -4.20645812828   -4.20645812828    6.30968719243    2.00000000000
     -6.30968719243    4.20645812828    4.20645812828    2.00000000000
     -4.20645812828    6.30968719243    4.20645812828    2.00000000000
      4.20645812828    6.30968719243    4.20645812828    2.00000000000
      6.30968719243    4.20645812828    4.20645812828    2.00000000000
      6.30968719243   -4.20645812828    4.20645812828    2.00000000000
      4.20645812828   -6.30968719243    4.20645812828    2.00000000000
     -4.20645812828   -6.30968719243    4.20645812828    2.00000000000
     -6.30968719243   -4.20645812828    4.20645812828    2.00000000000
     -8.41291625657    0.00000000000    2.10322906414    2.00000000000
      0.00000000000    8.41291625657    2.10322906414    2.00000000000
      8.41291625657    0.00000000000    2.10322906414    2.00000000000
      0.00000000000   -8.41291625657    2.10322906414    2.00000000000
     -8.41291625657    2.10322906414    0.00000000000    2.00000000000
     -2.10322906414    8.41291625657    0.00000000000    2.00000000000
      2.10322906414    8.41291625657    0.00000000000    2.00000000000
      8.41291625657    2.10322906414    0.00000000000    2.00000000000
      8.41291625657   -2.10322906414    0.00000000000    2.00000000000
      2.10322906414   -8.41291625657    0.00000000000    2.00000000000
     -2.10322906414   -8.41291625657    0.00000000000    2.00000000000
     -8.41291625657   -2.10322906414    0.00000000000    2.00000000000
     -8.41291625657    0.00000000000   -2.10322906414    2.00000000000
      0.00000000000    8.41291625657   -2.10322906414    2.00000000000
      8.41291625657    0.00000000000   -2.10322906414    2.00000000000
      0.00000000000   -8.41291625657   -2.10322906414    2.00000000000
     -6.30968719243    4.20645812828   -4.20645812828    2.00000000000
     -4.20645812828    6.30968719243   -4.20645812828    2.00000000000
      4.20645812828    6.30968719243   -4.20645812828    2.00000000000
      6.30968719243    4.20645812828   -4.20645812828    2.00000000000
      6.30968719243   -4.20645812828   -4.20645812828    2.00000000000
      4.20645812828   -6.30968719243   -4.20645812828    2.00000000000
     -4.20645812828   -6.30968719243   -4.20645812828    2.00000000000
     -6.30968719243   -4.20645812828   -4.20645812828    2.00000000000
     -4.20645812828    4.20645812828   -6.30968719243    2.00000000000
      4.20645812828    4.20645812828   -6.30968719243    2.00000000000
      4.20645812828   -4.20645812828   -6.30968719243    2.00000000000
     -4.20645812828   -4.20645812828   -6.30968719243    2.00000000000
     -2.10322906414    0.00000000000   -8.41291625657    2.00000000000
      0.00000000000    2.10322906414   -8.41291625657    2.00000000000
      2.10322906414    0.00000000000   -8.41291625657    2.00000000000
      0.00000000000   -2.10322906414   -8.41291625657    2.00000000000
     -2.10322906414    2.10322906414    8.41291625657   -2.00000000000
      2.10322906414    2.10322906414    8.41291625657   -2.00000000000
      2.10322906414   -2.10322906414    8.41291625657   -2.00000000000
     -2.10322906414   -2.10322906414    8.41291625657   -2.00000000000
     -6.30968719243    0.00000000000    6.30968719243   -2.00000000000
      0.00000000000    6.30968719243    6.30968719243   -2.00000000000
      6.30968719243    0.00000000000    6.30968719243   -2.00000000000
      0.00000000000   -6.30968719243    6.30968719243   -2.00000000000
     -8.41291625657    2.10322906414    2.10322906414   -2.00000000000
     -2.10322906414    8.41291625657    2.10322906414   -2.00000000000
      2.10322906414    8.41291625657    2.10322906414   -2.00000000000
      8.41291625657    2.10322906414    2.10322906414   -2.00000000000
      8.41291625657   -2.10322906414    2.10322906414   -2.00000000000
      2.10322906414   -8.41291625657    2.10322906414   -2.00000000000
     -2.10322906414   -8.41291625657    2.10322906414   -2.00000000000
     -8.41291625657   -2.10322906414    2.10322906414   -2.00000000000
     -6.30968719243    6.30968719243    0.00000000000   -2.00000000000
      6.30968719243    6.30968719243    0.00000000000   -2.00000000000
      6.30968719243   -6.30968719243    0.00000000000   -2.00000000000
     -6.30968719243   -6.30968719243    0.00000000000   -2.00000000000
     -8.41291625657    2.10322906414   -2.10322906414   -2.00000000000
     -2.10322906414    8.41291625657   -2.10322906414   -2.00000000000
      2.10322906414    8.41291625657   -2.10322906414   -2.00000000000
      8.41291625657    2.10322906414   -2.10322906414   -2.00000000000
      8.41291625657   -2.10322906414   -2.10322906414   -2.00000000000
      2.10322906414   -8.41291625657   -2.10322906414   -2.00000000000
     -2.10322906414   -8.41291625657   -2.10322906414   -2.00000000000
     -8.41291625657   -2.10322906414   -2.10322906414   -2.00000000000
     -6.30968719243    0.00000000000   -6.30968719243   -2.00000000000
      0.00000000000    6.30968719243   -6.30968719243   -2.00000000000
      6.30968719243    0.00000000000   -6.30968719243   -2.00000000000
      0.00000000000   -6.30968719243   -6.30968719243   -2.00000000000
     -2.10322906414    2.10322906414   -8.41291625657   -2.00000000000
      2.10322906414    2.10322906414   -8.41291625657   -2.00000000000
      2.10322906414   -2.10322906414   -8.41291625657   -2.00000000000
     -2.10322906414   -2.10322906414   -8.41291625657   -2.00000000000
     -6.30968719243    2.10322906414    6.30968719243    2.00000000000
     -2.10322906414    6.30968719243    6.30968719243    2.00000000000
      2.10322906414    6.30968719243    6.30968719243    2.00000000000
      6.30968719243    2.10322906414    6.30968719243    2.00000000000
      6.30968719243   -2.10322906414    6.30968719243    2.00000000000
      2.10322906414   -6.30968719243    6.30968719243    2.00000000000
     -2.10322906414   -6.30968719243    6.30968719243    2.00000000000
     -6.30968719243   -2.10322906414    6.30968719243    2.00000000000
     -6.30968719243    6.30968719243    2.10322906414    2.00000000000
      6.30968719243    6.30968719243    2.10322906414    2.00000000000
      6.30968719243   -6.30968719243    2.10322906414    2.00000000000
     -6.30968719243   -6.30968719243    2.10322906414    2.00000000000
     -6.30968719243    6.30968719243   -2.10322906414    2.00000000000
      6.30968719243    6.30968719243   -2.10322906414    2.00000000000
      6.30968719243   -6.30968719243   -2.10322906414    2.00000000000
     -6.30968719243   -6.30968719243   -2.10322906414    2.00000000000
     -6.30968719243    2.10322906414   -6.30968719243    2.00000000000
     -2.10322906414    6.30968719243   -6.30968719243    2.00000000000
      2.10322906414    6.30968719243   -6.30968719243    2.00000000000
      6.30968719243    2.10322906414   -6.30968719243    2.00000000000
      6.30968719243   -2.10322906414   -6.30968719243    2.00000000000
      2.10322906414   -6.30968719243   -6.30968719243    2.00000000000
     -2.10322906414   -6.30968719243   -6.30968719243    2.00000000000
     -6.30968719243   -2.10322906414   -6.30968719243    2.00000000000
     -4.20645812828    0.00000000000    8.41291625657   -2.00000000000
      0.00000000000    4.20645812828    8.41291625657   -2.00000000000
      4.20645812828    0.00000000000    8.41291625657   -2.00000000000
      0.00000000000   -4.20645812828    8.41291625657   -2.00000000000
     -8.41291625657    0.00000000000    4.20645812828   -2.00000000000
      0.00000000000    8.41291625657    4.20645812828   -2.00000000000
      8.41291625657    0.00000000000    4.20645812828   -2.00000000000
      0.00000000000   -8.41291625657    4.20645812828   -2.00000000000
     -8.41291625657    4.20645812828    0.00000000000   -2.00000000000
     -4.20645812828    8.41291625657    0.00000000000   -2.00000000000
      4.20645812828    8.41291625657    0.00000000000   -2.00000000000
      8.41291625657    4.20645812828    0.00000000000   -2.00000000000
      8.41291625657   -4.20645812828    0.00000000000   -2.00000000000
      4.20645812828   -8.41291625657    0.00000000000   -2.00000000000
     -4.20645812828   -8.41291625657    0.00000000000   -2.00000000000
     -8.41291625657   -4.20645812828    0.00000000000   -2.00000000000
     -8.41291625657    0.00000000000   -4.20645812828   -2.00000000000
      0.00000000000    8.41291625657   -4.20645812828   -2.00000000000
      8.41291625657    0.00000000000   -4.20645812828   -2.00000000000
      0.00000000000   -8.41291625657   -4.20645812828   -2.00000000000
     -4.20645812828    0.00000000000   -8.41291625657   -2.00000000000
      0.00000000000    4.20645812828   -8.41291625657   -2.00000000000
      4.20645812828    0.00000000000   -8.41291625657   -2.00000000000
      0.00000000000   -4.20645812828   -8.41291625657   -2.00000000000
     -4.20645812828    2.10322906414    8.41291625657    2.00000000000
     -2.10322906414    4.20645812828    8.41291625657    2.00000000000
      2.10322906414    4.20645812828    8.41291625657    2.00000000000
      4.20645812828    2.10322906414    8.41291625657    2.00000000000
      4.20645812828   -2.10322906414    8.41291625657    2.00000000000
      2.10322906414   -4.20645812828    8.41291625657    2.00000000000
     -2.10322906414   -4.20645812828    8.41291625657    2.00000000000
     -4.20645812828   -2.10322906414    8.41291625657    2.00000000000
     -8.41291625657    2.10322906414    4.20645812828    2.00000000000
     -2.10322906414    8.41291625657    4.20645812828    2.00000000000
      2.10322906414    8.41291625657    4.20645812828    2.00000000000
      8.41291625657    2.10322906414    4.20645812828    2.00000000000
      8.41291625657   -2.10322906414    4.20645812828    2.00000000000
      2.10322906414   -8.41291625657    4.20645812828    2.00000000000
     -2.10322906414   -8.41291625657    4.20645812828    2.00000000000
     -8.41291625657   -2.10322906414    4.20645812828    2.00000000000
     -8.41291625657    4.20645812828    2.10322906414    2.00000000000
     -4.20645812828    8.41291625657    2.10322906414    2.00000000000
      4.20645812828    8.41291625657    2.10322906414    2.00000000000
      8.41291625657    4.20645812828    2.10322906414    2.00000000000
      8.41291625657   -4.20645812828    2.10322906414    2.00000000000
      4.20645812828   -8.41291625657    2.10322906414    2.00000000000
     -4.20645812828   -8.41291625657    2.10322906414    2.00000000000
     -8.41291625657   -4.20645812828    2.10322906414    2.00000000000
     -8.41291625657    4.20645812828   -2.10322906414    2.00000000000
     -4.20645812828    8.41291625657   -2.10322906414    2.00000000000
      4.20645812828    8.41291625657   -2.10322906414    2.00000000000
      8.41291625657    4.20645812828   -2.10322906414    2.00000000000
      8.41291625657   -4.20645812828   -2.10322906414    2.00000000000
      4.20645812828   -8.41291625657   -2.10322906414    2.00000000000
     -4.20645812828   -8.41291625657   -2.10322906414    2.00000000000
     -8.41291625657   -4.20645812828   -2.10322906414    2.00000000000
     -8.41291625657    2.10322906414   -4.20645812828    2.00000000000
     -2.10322906414    8.41291625657   -4.20645812828    2.00000000000
      2.10322906414    8.41291625657   -4.20645812828    2.00000000000
      8.41291625657    2.10322906414   -4.20645812828    2.00000000000
      8.41291625657   -2.10322906414   -4.20645812828    2.00000000000
      2.10322906414   -8.41291625657   -4.20645812828    2.00000000000
     -2.10322906414   -8.41291625657   -4.20645812828    2.00000000000
     -8.41291625657   -2.10322906414   -4.20645812828    2.00000000000
     -4.20645812828    2.10322906414   -8.41291625657    2.00000000000
     -2.10322906414    4.20645812828   -8.41291625657    2.00000000000
      2.10322906414    4.20645812828   -8.41291625657    2.00000000000
      4.20645812828    2.10322906414   -8.41291625657    2.00000000000
      4.20645812828   -2.10322906414   -8.41291625657    2.00000000000
      2.10322906414   -4.20645812828   -8.41291625657    2.00000000000
     -2.10322906414   -4.20645812828   -8.41291625657    2.00000000000
     -4.20645812828   -2.10322906414   -8.41291625657    2.00000000000
      0.00000000000    0.00000000000   10.51614532071    2.00000000000
    -10.51614532071    0.00000000000    0.00000000000    2.00000000000
      0.00000000000   10.51614532071    0.00000000000    2.00000000000
     10.51614532071    0.00000000000    0.00000000000    2.00000000000
      0.00000000000  -10.51614532071    0.00000000000    2.00000000000
      0.00000000000    0.00000000000  -10.51614532071    2.00000000000
     -2.10322906414    0.00000000000   10.51614532071   -2.00000000000
      0.00000000000    2.10322906414   10.51614532071   -2.00000000000
      2.10322906414    0.00000000000   10.51614532071   -2.00000000000
      0.00000000000   -2.10322906414   10.51614532071   -2.00000000000
    -10.51614532071    0.00000000000    2.10322906414   -2.00000000000
      0.00000000000   10.51614532071    2.10322906414   -2.00000000000
     10.51614532071    0.00000000000    2.10322906414   -2.00000000000
      0.00000000000  -10.51614532071    2.10322906414   -2.00000000000
    -10.51614532071    2.10322906414    0.00000000000   -2.00000000000
     -2.10322906414   10.51614532071    0.00000000000   -2.00000000000
      2.10322906414   10.51614532071    0.00000000000   -2.00000000000
     10.51614532071    2.10322906414    0.00000000000   -2.00000000000
     10.51614532071   -2.10322906414    0.00000000000   -2.00000000000
      2.10322906414  -10.51614532071    0.00000000000   -2.00000000000
     -2.10322906414  -10.51614532071    0.00000000000   -2.00000000000
    -10.51614532071   -2.10322906414    0.00000000000   -2.00000000000
    -10.51614532071    0.00000000000   -2.10322906414   -2.00000000000
      0.00000000000   10.51614532071   -2.10322906414   -2.00000000000
     10.51614532071    0.00000000000   -2.10322906414   -2.00000000000
      0.00000000000  -10.51614532071   -2.10322906414   -2.00000000000
     -2.10322906414    0.00000000000  -10.51614532071   -2.00000000000
      0.00000000000    2.10322906414  -10.51614532071   -2.00000000000
      2.10322906414    0.00000000000  -10.51614532071   -2.00000000000
      0.00000000000   -2.10322906414  -10.51614532071   -2.00000000000
     -2.10322906414    2.10322906414   10.51614532071    2.00000000000
      2.10322906414    2.10322906414   10.51614532071    2.00000000000
      2.10322906414   -2.10322906414   10.51614532071    2.00000000000
     -2.10322906414   -2.10322906414   10.51614532071    2.00000000000
    -10.51614532071    2.10322906414    2.10322906414    2.00000000000
     -2.10322906414   10.51614532071    2.10322906414    2.00000000000
      2.10322906414   10.51614532071    2.10322906414    2.00000000000
     10.51614532071    2.10322906414    2.10322906414    2.00000000000
     10.51614532071   -2.10322906414    2.10322906414    2.00000000000
      2.10322906414  -10.51614532071    2.10322906414    2.00000000000
     -2.10322906414  -10.51614532071    2.10322906414    2.00000000000
    -10.51614532071   -2.10322906414    2.10322906414    2.00000000000
    -10.51614532071    2.10322906414   -2.10322906414    2.00000000000
     -2.10322906414   10.51614532071   -2.10322906414    2.00000000000
      2.10322906414   10.51614532071   -2.10322906414    2.00000000000
     10.51614532071    2.10322906414   -2.10322906414    2.00000000000
     10.51614532071   -2.10322906414   -2.10322906414    2.00000000000
      2.10322906414  -10.51614532071   -2.10322906414    2.00000000000
     -2.10322906414  -10.51614532071   -2.10322906414    2.00000000000
    -10.51614532071   -2.10322906414   -2.10322906414    2.00000000000
     -2.10322906414    2.10322906414  -10.51614532071    2.00000000000
      2.10322906414    2.10322906414  -10.51614532071    2.00000000000
      2.10322906414   -2.10322906414  -10.51614532071    2.00000000000
     -2.10322906414   -2.10322906414  -10.51614532071    2.00000000000
     -6.30968719243    4.20645812828    6.30968719243   -2.00000000000
     -4.20645812828    6.30968719243    6.30968719243   -2.00000000000
      4.20645812828    6.30968719243    6.30968719243   -2.00000000000
      6.30968719243    4.20645812828    6.30968719243   -2.00000000000
      6.30968719243   -4.20645812828    6.30968719243   -2.00000000000
      4.20645812828   -6.30968719243    6.30968719243   -2.00000000000
     -4.20645812828   -6.30968719243    6.30968719243   -2.00000000000
     -6.30968719243   -4.20645812828    6.30968719243   -2.00000000000
     -6.30968719243    6.30968719243    4.20645812828   -2.00000000000
      6.30968719243    6.30968719243    4.20645812828   -2.00000000000
      6.30968719243   -6.30968719243    4.20645812828   -2.00000000000
     -6.30968719243   -6.30968719243    4.20645812828   -2.00000000000
     -6.30968719243    6.30968719243   -4.20645812828   -2.00000000000
      6.30968719243    6.30968719243   -4.20645812828   -2.00000000000
      6.30968719243   -6.30968719243   -4.20645812828   -2.00000000000
     -6.30968719243   -6.30968719243   -4.20645812828   -2.00000000000
     -6.30968719243    4.20645812828   -6.30968719243   -2.00000000000
     -4.20645812828    6.30968719243   -6.30968719243   -2.00000000000
      4.20645812828    6.30968719243   -6.30968719243   -2.00000000000
      6.30968719243    4.20645812828   -6.30968719243   -2.00000000000
      6.30968719243   -4.20645812828   -6.30968719243   -2.00000000000
      4.20645812828   -6.30968719243   -6.30968719243   -2.00000000000
     -4.20645812828   -6.30968719243   -6.30968719243   -2.00000000000
     -6.30968719243   -4.20645812828   -6.30968719243   -2.00000000000
     -4.20645812828    4.20645812828    8.41291625657   -2.00000000000
      4.20645812828    4.20645812828    8.41291625657   -2.00000000000
      4.20645812828   -4.20645812828    8.41291625657   -2.00000000000
     -4.20645812828   -4.20645812828    8.41291625657   -2.00000000000
     -8.41291625657    4.20645812828    4.20645812828   -2.00000000000
     -4.20645812828    8.41291625657    4.20645812828   -2.00000000000
      4.20645812828    8.41291625657    4.20645812828   -2.00000000000
      8.41291625657    4.20645812828    4.20645812828   -2.00000000000
      8.41291625657   -4.20645812828    4.20645812828   -2.00000000000
      4.20645812828   -8.41291625657    4.20645812828   -2.00000000000
     -4.20645812828   -8.41291625657    4.20645812828   -2.00000000000
     -8.41291625657   -4.20645812828    4.20645812828   -2.00000000000
     -8.41291625657    4.20645812828   -4.20645812828   -2.00000000000
     -4.20645812828    8.41291625657   -4.20645812828   -2.00000000000
      4.20645812828    8.41291625657   -4.20645812828   -2.00000000000
      8.41291625657    4.20645812828   -4.20645812828   -2.00000000000
      8.41291625657   -4.20645812828   -4.20645812828   -2.00000000000
      4.20645812828   -8.41291625657   -4.20645812828   -2.00000000000
     -4.20645812828   -8.41291625657   -4.20645812828   -2.00000000000
     -8.41291625657   -4.20645812828   -4.20645812828   -2.00000000000
     -4.20645812828    4.20645812828   -8.41291625657   -2.00000000000
      4.20645812828    4.20645812828   -8.41291625657   -2.00000000000
      4.20645812828   -4.20645812828   -8.41291625657   -2.00000000000
     -4.20645812828   -4.20645812828   -8.41291625657   -2.00000000000
     -6.30968719243    0.00000000000    8.41291625657    2.00000000000
      0.00000000000    6.30968719243    8.41291625657    2.00000000000
      6.30968719243    0.00000000000    8.41291625657    2.00000000000
      0.00000000000   -6.30968719243    8.41291625657    2.00000000000
     -8.41291625657    0.00000000000    6.30968719243    2.00000000000
      0.00000000000    8.41291625657    6.30968719243    2.00000000000
      8.41291625657    0.00000000000    6.30968719243    2.00000000000
      0.00000000000   -8.41291625657    6.30968719243    2.00000000000
     -8.41291625657    6.30968719243    0.00000000000    2.00000000000
     -6.30968719243    8.41291625657    0.00000000000    2.00000000000
      6.30968719243    8.41291625657    0.00000000000    2.00000000000
      8.41291625657    6.30968719243    0.00000000000    2.00000000000
      8.41291625657   -6.30968719243    0.00000000000    2.00000000000
      6.30968719243   -8.41291625657    0.00000000000    2.00000000000
     -6.30968719243   -8.41291625657    0.00000000000    2.00000000000
     -8.41291625657   -6.30968719243    0.00000000000    2.00000000000
     -8.41291625657    0.00000000000   -6.30968719243    2.00000000000
      0.00000000000    8.41291625657   -6.30968719243    2.00000000000
      8.41291625657    0.00000000000   -6.30968719243    2.00000000000
      0.00000000000   -8.41291625657   -6.30968719243    2.00000000000
     -6.30968719243    0.00000000000   -8.41291625657    2.00000000000
      0.00000000000    6.30968719243   -8.41291625657    2.00000000000
      6.30968719243    0.00000000000   -8.41291625657    2.00000000000
      0.00000000000   -6.30968719243   -8.41291625657    2.00000000000
     -6.30968719243    2.10322906414    8.41291625657   -2.00000000000
     -2.10322906414    6.30968719243    8.41291625657   -2.00000000000
      2.10322906414    6.30968719243    8.41291625657   -2.00000000000
      6.30968719243    2.10322906414    8.41291625657   -2.00000000000
      6.30968719243   -2.10322906414    8.41291625657   -2.00000000000
      2.10322906414   -6.30968719243    8.41291625657   -2.00000000000
     -2.10322906414   -6.30968719243    8.41291625657   -2.00000000000
     -6.30968719243   -2.10322906414    8.41291625657   -2.00000000000
     -8.41291625657    2.10322906414    6.30968719243   -2.00000000000
     -2.10322906414    8.41291625657    6.30968719243   -2.00000000000
      2.10322906414    8.41291625657    6.30968719243   -2.00000000000
      8.41291625657    2.10322906414    6.30968719243   -2.00000000000
      8.41291625657   -2.10322906414    6.30968719243   -2.00000000000
      2.10322906414   -8.41291625657    6.30968719243   -2.00000000000
     -2.10322906414   -8.41291625657    6.30968719243   -2.00000000000
     -8.41291625657   -2.10322906414    6.30968719243   -2.00000000000
     -8.41291625657    6.30968719243    2.10322906414   -2.00000000000
     -6.30968719243    8.41291625657    2.10322906414   -2.00000000000
      6.30968719243    8.41291625657    2.10322906414   -2.00000000000
      8.41291625657    6.30968719243    2.10322906414   -2.00000000000
      8.41291625657   -6.30968719243    2.10322906414   -2.00000000000
      6.30968719243   -8.41291625657    2.10322906414   -2.00000000000
     -6.30968719243   -8.41291625657    2.10322906414   -2.00000000000
     -8.41291625657   -6.30968719243    2.10322906414   -2.00000000000
     -8.41291625657    6.30968719243   -2.10322906414   -2.00000000000
     -6.30968719243    8.41291625657   -2.10322906414   -2.00000000000
      6.30968719243    8.41291625657   -2.10322906414   -2.00000000000
      8.41291625657    6.30968719243   -2.10322906414   -2.00000000000
      8.41291625657   -6.30968719243   -2.10322906414   -2.00000000000
      6.30968719243   -8.41291625657   -2.10322906414   -2.00000000000
     -6.30968719243   -8.41291625657   -2.10322906414   -2.00000000000
     -8.41291625657   -6.30968719243   -2.10322906414   -2.00000000000
     -8.41291625657    2.10322906414   -6.30968719243   -2.00000000000
     -2.10322906414    8.41291625657   -6.30968719243   -2.00000000000
      2.10322906414    8.41291625657   -6.30968719243   -2.00000000000
      8.41291625657    2.10322906414   -6.30968719243   -2.00000000000
      8.41291625657   -2.10322906414   -6.30968719243   -2.00000000000
      2.10322906414   -8.41291625657   -6.30968719243   -2.00000000000
     -2.10322906414   -8.41291625657   -6.30968719243   -2.00000000000
     -8.41291625657   -2.10322906414   -6.30968719243   -2.00000000000
     -6.30968719243    2.10322906414   -8.41291625657   -2.00000000000
     -2.10322906414    6.30968719243   -8.41291625657   -2.00000000000
      2.10322906414    6.30968719243   -8.41291625657   -2.00000000000
      6.30968719243    2.10322906414   -8.41291625657   -2.00000000000
      6.30968719243   -2.10322906414   -8.41291625657   -2.00000000000
      2.10322906414   -6.30968719243   -8.41291625657   -2.00000000000
     -2.10322906414   -6.30968719243   -8.41291625657   -2.00000000000
     -6.30968719243   -2.10322906414   -8.41291625657   -2.00000000000
     -6.30968719243    6.30968719243    6.30968719243    2.00000000000
      6.30968719243    6.30968719243    6.30968719243    2.00000000000
      6.30968719243   -6.30968719243    6.30968719243    2.00000000000
     -6.30968719243   -6.30968719243    6.30968719243    2.00000000000
     -6.30968719243    6.30968719243   -6.30968719243    2.00000000000
      6.30968719243    6.30968719243   -6.30968719243    2.00000000000
      6.30968719243   -6.30968719243   -6.30968719243    2.00000000000
     -6.30968719243   -6.30968719243   -6.30968719243    2.00000000000
     -4.20645812828    0.00000000000   10.51614532071    2.00000000000
      0.00000000000    4.20645812828   10.51614532071    2.00000000000
      4.20645812828    0.00000000000   10.51614532071    2.00000000000
      0.00000000000   -4.20645812828   10.51614532071    2.00000000000
     -6.30968719243    4.20645812828    8.41291625657    2.00000000000
     -4.20645812828    6.30968719243    8.41291625657    2.00000000000
      4.20645812828    6.30968719243    8.41291625657    2.00000000000
      6.30968719243    4.20645812828    8.41291625657    2.00000000000
      6.30968719243   -4.20645812828    8.41291625657    2.00000000000
      4.20645812828   -6.30968719243    8.41291625657    2.00000000000
     -4.20645812828   -6.30968719243    8.41291625657    2.00000000000
     -6.30968719243   -4.20645812828    8.41291625657    2.00000000000
     -8.41291625657    4.20645812828    6.30968719243    2.00000000000
     -4.20645812828    8.41291625657    6.30968719243    2.00000000000
      4.20645812828    8.41291625657    6.30968719243    2.00000000000
      8.41291625657    4.20645812828    6.30968719243    2.00000000000
      8.41291625657   -4.20645812828    6.30968719243    2.00000000000
      4.20645812828   -8.41291625657    6.30968719243    2.00000000000
     -4.20645812828   -8.41291625657    6.30968719243    2.00000000000
     -8.41291625657   -4.20645812828    6.30968719243    2.00000000000
    -10.51614532071    0.00000000000    4.20645812828    2.00000000000
     -8.41291625657    6.30968719243    4.20645812828    2.00000000000
     -6.30968719243    8.41291625657    4.20645812828    2.00000000000
      0.00000000000   10.51614532071    4.20645812828    2.00000000000
      6.30968719243    8.41291625657    4.20645812828    2.00000000000
      8.41291625657    6.30968719243    4.20645812828    2.00000000000
     10.51614532071    0.00000000000    4.20645812828    2.00000000000
      8.41291625657   -6.30968719243    4.20645812828    2.00000000000
      6.30968719243   -8.41291625657    4.20645812828    2.00000000000
      0.00000000000  -10.51614532071    4.20645812828    2.00000000000
     -6.30968719243   -8.41291625657    4.20645812828    2.00000000000
     -8.41291625657   -6.30968719243    4.20645812828    2.00000000000
    -10.51614532071    4.20645812828    0.00000000000    2.00000000000
     -4.20645812828   10.51614532071    0.00000000000    2.00000000000
      4.20645812828   10.51614532071    0.00000000000    2.00000000000
     10.51614532071    4.20645812828    0.00000000000    2.00000000000
     10.51614532071   -4.20645812828    0.00000000000    2.00000000000
      4.20645812828  -10.51614532071    0.00000000000    2.00000000000
     -4.20645812828  -10.51614532071    0.00000000000    2.00000000000
    -10.51614532071   -4.20645812828    0.00000000000    2.00000000000
    -10.51614532071    0.00000000000   -4.20645812828    2.00000000000
     -8.41291625657    6.30968719243   -4.20645812828    2.00000000000
     -6.30968719243    8.41291625657   -4.20645812828    2.00000000000
      0.00000000000   10.51614532071   -4.20645812828    2.00000000000
      6.30968719243    8.41291625657   -4.20645812828    2.00000000000
      8.41291625657    6.30968719243   -4.20645812828    2.00000000000
     10.51614532071    0.00000000000   -4.20645812828    2.00000000000
      8.41291625657   -6.30968719243   -4.20645812828    2.00000000000
      6.30968719243   -8.41291625657   -4.20645812828    2.00000000000
      0.00000000000  -10.51614532071   -4.20645812828    2.00000000000
     -6.30968719243   -8.41291625657   -4.20645812828    2.00000000000
     -8.41291625657   -6.30968719243   -4.20645812828    2.00000000000
     -8.41291625657    4.20645812828   -6.30968719243    2.00000000000
     -4.20645812828    8.41291625657   -6.30968719243    2.00000000000
      4.20645812828    8.41291625657   -6.30968719243    2.00000000000
      8.41291625657    4.20645812828   -6.30968719243    2.00000000000
      8.41291625657   -4.20645812828   -6.30968719243    2.00000000000
      4.20645812828   -8.41291625657   -6.30968719243    2.00000000000
     -4.20645812828   -8.41291625657   -6.30968719243    2.00000000000
     -8.41291625657   -4.20645812828   -6.30968719243    2.00000000000
     -6.30968719243    4.20645812828   -8.41291625657    2.00000000000
     -4.20645812828    6.30968719243   -8.41291625657    2.00000000000
      4.20645812828    6.30968719243   -8.41291625657    2.00000000000
      6.30968719243    4.20645812828   -8.41291625657    2.00000000000
      6.30968719243   -4.20645812828   -8.41291625657    2.00000000000
      4.20645812828   -6.30968719243   -8.41291625657    2.00000000000
     -4.20645812828   -6.30968719243   -8.41291625657    2.00000000000
     -6.30968719243   -4.20645812828   -8.41291625657    2.00000000000
     -4.20645812828    0.00000000000  -10.51614532071    2.00000000000
      0.00000000000    4.20645812828  -10.51614532071    2.00000000000
      4.20645812828    0.00000000000  -10.51614532071    2.00000000000
      0.00000000000   -4.20645812828  -10.51614532071    2.00000000000
     -4.20645812828    2.10322906414   10.51614532071   -2.00000000000
     -2.10322906414    4.20645812828   10.51614532071   -2.00000000000
      2.10322906414    4.20645812828   10.51614532071   -2.00000000000
      4.20645812828    2.10322906414   10.51614532071   -2.00000000000
      4.20645812828   -2.10322906414   10.51614532071   -2.00000000000
      2.10322906414   -4.20645812828   10.51614532071   -2.00000000000
     -2.10322906414   -4.20645812828   10.51614532071   -2.00000000000
     -4.20645812828   -2.10322906414   10.51614532071   -2.00000000000
    -10.51614532071    2.10322906414    4.20645812828   -2.00000000000
     -2.10322906414   10.51614532071    4.20645812828   -2.00000000000
      2.10322906414   10.51614532071    4.20645812828   -2.00000000000
     10.51614532071    2.10322906414    4.20645812828   -2.00000000000
     10.51614532071   -2.10322906414    4.20645812828   -2.00000000000
      2.10322906414  -10.51614532071    4.20645812828   -2.00000000000
     -2.10322906414  -10.51614532071    4.20645812828   -2.00000000000
    -10.51614532071   -2.10322906414    4.20645812828   -2.00000000000
    -10.51614532071    4.20645812828    2.10322906414   -2.00000000000
     -4.20645812828   10.51614532071    2.10322906414   -2.00000000000
      4.20645812828   10.51614532071    2.10322906414   -2.00000000000
     10.51614532071    4.20645812828    2.10322906414   -2.00000000000
     10.51614532071   -4.20645812828    2.10322906414   -2.00000000000
      4.20645812828  -10.51614532071    2.10322906414   -2.00000000000
     -4.20645812828  -10.51614532071    2.10322906414   -2.00000000000
    -10.51614532071   -4.20645812828    2.10322906414   -2.00000000000
    -10.51614532071    4.20645812828   -2.10322906414   -2.00000000000
     -4.20645812828   10.51614532071   -2.10322906414   -2.00000000000
      4.20645812828   10.51614532071   -2.10322906414   -2.00000000000
     10.51614532071    4.20645812828   -2.10322906414   -2.00000000000
     10.51614532071   -4.20645812828   -2.10322906414   -2.00000000000
      4.20645812828  -10.51614532071   -2.10322906414   -2.00000000000
     -4.20645812828  -10.51614532071   -2.10322906414   -2.00000000000
    -10.51614532071   -4.20645812828   -2.10322906414   -2.00000000000
    -10.51614532071    2.10322906414   -4.20645812828   -2.00000000000
     -2.10322906414   10.51614532071   -4.20645812828   -2.00000000000
      2.10322906414   10.51614532071   -4.20645812828   -2.00000000000
     10.51614532071    2.10322906414   -4.20645812828   -2.00000000000
     10.51614532071   -2.10322906414   -4.20645812828   -2.00000000000
      2.10322906414  -10.51614532071   -4.20645812828   -2.00000000000
     -2.10322906414  -10.51614532071   -4.20645812828   -2.00000000000
    -10.51614532071   -2.10322906414   -4.20645812828   -2.00000000000
     -4.20645812828    2.10322906414  -10.51614532071   -2.00000000000
     -2.10322906414    4.20645812828  -10.51614532071   -2.00000000000
      2.10322906414    4.20645812828  -10.51614532071   -2.00000000000
      4.20645812828    2.10322906414  -10.51614532071   -2.00000000000
      4.20645812828   -2.10322906414  -10.51614532071   -2.00000000000
      2.10322906414   -4.20645812828  -10.51614532071   -2.00000000000
     -2.10322906414   -4.20645812828  -10.51614532071   -2.00000000000
     -4.20645812828   -2.10322906414  -10.51614532071   -2.00000000000
     -8.41291625657    0.00000000000    8.41291625657   -2.00000000000
      0.00000000000    8.41291625657    8.41291625657   -2.00000000000
      8.41291625657    0.00000000000    8.41291625657   -2.00000000000
      0.00000000000   -8.41291625657    8.41291625657   -2.00000000000
     -8.41291625657    8.41291625657    0.00000000000   -2.00000000000
      8.41291625657    8.41291625657    0.00000000000   -2.00000000000
      8.41291625657   -8.41291625657    0.00000000000   -2.00000000000
     -8.41291625657   -8.41291625657    0.00000000000   -2.00000000000
     -8.41291625657    0.00000000000   -8.41291625657   -2.00000000000
      0.00000000000    8.41291625657   -8.41291625657   -2.00000000000
      8.41291625657    0.00000000000   -8.41291625657   -2.00000000000
      0.00000000000   -8.41291625657   -8.41291625657   -2.00000000000
     -4.20645812828    4.20645812828   10.51614532071    2.00000000000
      4.20645812828    4.20645812828   10.51614532071    2.00000000000
      4.20645812828   -4.20645812828   10.51614532071    2.00000000000
     -4.20645812828   -4.20645812828   10.51614532071    2.00000000000
[...]
 Number of Cholesky vectors:      8
 Number of NAFs:               2693  (35.32%)
 MP2 energy in ED [au]:          -0.089769273403
 CPU time [min]:  7922.934                   Wall time [min]:   236.129
 
 MO:    66
 Number of atoms in domain:      25
 Number of atomic orbitals:    2174
 Number of atoms for local DF:   25
 Number of fitting functions:  7625 (100.00%)
 Warning: drop high-lying PAOs                     6
 Number of occupied orbitals:    47
 Number of virtual  orbitals:  2043
 Number of Cholesky vectors:      8
 Number of NAFs:               1780  (23.34%)
 MP2 energy in ED [au]:          -0.088009530932
 CPU time [min]:  8021.043                   Wall time [min]:   238.883
 
 MO:    67
 Number of atoms in domain:      25
 Number of atomic orbitals:    2174
 Number of atoms for local DF:   25
 Number of fitting functions:  7625 (100.00%)
 Warning: drop high-lying PAOs                     6
 Number of occupied orbitals:    46
 Number of virtual  orbitals:  2043
 Number of Cholesky vectors:      8
 Number of NAFs:               1748  (22.92%)
 MP2 energy in ED [au]:          -0.088008027600
 CPU time [min]:  8114.449                   Wall time [min]:   241.493
 
 MO:    68
 Number of atoms in domain:      25
 Number of atomic orbitals:    2174
 Number of atoms for local DF:   25
 Number of fitting functions:  7625 (100.00%)
 Warning: drop high-lying PAOs                     6
 Number of occupied orbitals:    46
 Number of virtual  orbitals:  2043
 Number of Cholesky vectors:      8
 Number of NAFs:               1746  (22.90%)
 MP2 energy in ED [au]:          -0.088008154074
 CPU time [min]:  8210.090                   Wall time [min]:   244.157
 
 MO:    69
 Number of atoms in domain:      25
 Number of atomic orbitals:    2174
 Number of atoms for local DF:   25
 Number of fitting functions:  7625 (100.00%)
 Warning: drop high-lying PAOs                     6
 Number of occupied orbitals:    54
 Number of virtual  orbitals:  2043
 Number of Cholesky vectors:      8
 Number of NAFs:               2059  (27.00%)
 MP2 energy in ED [au]:          -0.090498317266
 CPU time [min]:  8316.305                   Wall time [min]:   247.265
 
 MO:    70
 Number of atoms in domain:      25
 Number of atomic orbitals:    2174
 Number of atoms for local DF:   25
 Number of fitting functions:  7625 (100.00%)
 Warning: drop high-lying PAOs                     6
 Number of occupied orbitals:   100
 Number of virtual  orbitals:  2043
 Number of Cholesky vectors:      8
 Number of NAFs:               3265  (42.82%)
 MP2 energy in ED [au]:          -0.095916616377
 CPU time [min]:  8482.610                   Wall time [min]:   252.621
 
 MO:    71
 Number of atoms in domain:      25
 Number of atomic orbitals:    2174
 Number of atoms for local DF:   25
 Number of fitting functions:  7625 (100.00%)
 Warning: drop high-lying PAOs                     6
 Number of occupied orbitals:    46
 Number of virtual  orbitals:  2043
 Number of Cholesky vectors:      8
 Number of NAFs:               1745  (22.89%)
 MP2 energy in ED [au]:          -0.088008185006
 CPU time [min]:  8578.789                   Wall time [min]:   255.325
 
 MO:    72
 Number of atoms in domain:      25
 Number of atomic orbitals:    2174
 Number of atoms for local DF:   25
 Number of fitting functions:  7625 (100.00%)
 Warning: drop high-lying PAOs                     6
 Number of occupied orbitals:    46
 Number of virtual  orbitals:  2043
 Number of Cholesky vectors:      8
 Number of NAFs:               1748  (22.92%)
 MP2 energy in ED [au]:          -0.088007902011
 CPU time [min]:  8675.295                   Wall time [min]:   258.041
 
 MO:    73
 Number of atoms in domain:      25
 Number of atomic orbitals:    2174
 Number of atoms for local DF:   25
 Number of fitting functions:  7625 (100.00%)
 Warning: drop high-lying PAOs                     6
 Number of occupied orbitals:   100
 Number of virtual  orbitals:  2043
 Number of Cholesky vectors:      8
 Number of NAFs:               3265  (42.82%)
 MP2 energy in ED [au]:          -0.095921273768
 CPU time [min]:  8841.282                   Wall time [min]:   263.319
 
 MO:    74
 Number of atoms in domain:      25
 Number of atomic orbitals:    2174
 Number of atoms for local DF:   25
 Number of fitting functions:  7625 (100.00%)
 Warning: drop high-lying PAOs                     6
 Number of occupied orbitals:    82
 Number of virtual  orbitals:  2043
 Number of Cholesky vectors:      8
 Number of NAFs:               2803  (36.76%)
 MP2 energy in ED [au]:          -0.092040602302
 CPU time [min]:  8984.969                   Wall time [min]:   267.781
 
 MO:    75
 Number of atoms in domain:      25
 Number of atomic orbitals:    2174
 Number of atoms for local DF:   25
 Number of fitting functions:  7625 (100.00%)
 Warning: drop high-lying PAOs                     6
 Number of occupied orbitals:    82
 Number of virtual  orbitals:  2043
 Number of Cholesky vectors:      8
 Number of NAFs:               2803  (36.76%)
 MP2 energy in ED [au]:          -0.092040218394
 CPU time [min]:  9126.388                   Wall time [min]:   272.290
 
 MO:    76
 Number of atoms in domain:      25
 Number of atomic orbitals:    2174
 Number of atoms for local DF:   25
 Number of fitting functions:  7625 (100.00%)
 Warning: drop high-lying PAOs                     6
 Number of occupied orbitals:   100
 Number of virtual  orbitals:  2043
 Number of Cholesky vectors:      8
 Number of NAFs:               3265  (42.82%)
 MP2 energy in ED [au]:          -0.095919112362
 CPU time [min]:  9292.184                   Wall time [min]:   277.586
 
 MO:    77
 Number of atoms in domain:      25
 Number of atomic orbitals:    2174
 Number of atoms for local DF:   25
 Number of fitting functions:  7625 (100.00%)
 Warning: drop high-lying PAOs                     6
 Number of occupied orbitals:   100
 Number of virtual  orbitals:  2043
 Number of Cholesky vectors:      8
 Number of NAFs:               3265  (42.82%)
 MP2 energy in ED [au]:          -0.095917962584
 CPU time [min]:  9457.468                   Wall time [min]:   282.855
 
 MO:    78
 Number of atoms in domain:      25
 Number of atomic orbitals:    2174
 Number of atoms for local DF:   25
 Number of fitting functions:  7625 (100.00%)
 Warning: drop high-lying PAOs                     6
 Number of occupied orbitals:    82
 Number of virtual  orbitals:  2043
 Number of Cholesky vectors:      8
 Number of NAFs:               2803  (36.76%)
 MP2 energy in ED [au]:          -0.092038398554
 CPU time [min]:  9603.713                   Wall time [min]:   287.450
 
 MO:    79
 Number of atoms in domain:      25
 Number of atomic orbitals:    2174
 Number of atoms for local DF:   25
 Number of fitting functions:  7625 (100.00%)
 Warning: drop high-lying PAOs                     6
 Number of occupied orbitals:    47
 Number of virtual  orbitals:  2043
 Number of Cholesky vectors:      8
 Number of NAFs:               1780  (23.34%)
 MP2 energy in ED [au]:          -0.088013418813
 CPU time [min]:  9699.528                   Wall time [min]:   290.203
 
 MO:    80
 Number of atoms in domain:      25
 Number of atomic orbitals:    2174
 Number of atoms for local DF:   25
 Number of fitting functions:  7625 (100.00%)
 Warning: drop high-lying PAOs                     6
 Number of occupied orbitals:    46
 Number of virtual  orbitals:  2043
 Number of Cholesky vectors:      8
 Number of NAFs:               1745  (22.89%)
 MP2 energy in ED [au]:          -0.088007458039
 CPU time [min]:  9792.420                   Wall time [min]:   292.841
 
 MO:    81
 Number of atoms in domain:      25
 Number of atomic orbitals:    2174
 Number of atoms for local DF:   25
 Number of fitting functions:  7625 (100.00%)
 Warning: drop high-lying PAOs                     6
 Number of occupied orbitals:    46
 Number of virtual  orbitals:  2043
 Number of Cholesky vectors:      8
 Number of NAFs:               1745  (22.89%)
 MP2 energy in ED [au]:          -0.088005095463
 CPU time [min]:  9888.131                   Wall time [min]:   295.500
 
 MO:    82
 Number of atoms in domain:      25
 Number of atomic orbitals:    2174
 Number of atoms for local DF:   25
 Number of fitting functions:  7625 (100.00%)
 Warning: drop high-lying PAOs                     6
 Number of occupied orbitals:    47
 Number of virtual  orbitals:  2043
 Number of Cholesky vectors:      8
 Number of NAFs:               1815  (23.80%)
 MP2 energy in ED [au]:          -0.088009266005
 CPU time [min]:  9985.150                   Wall time [min]:   298.236
 
 MO:    83
 Number of atoms in domain:      25
 Number of atomic orbitals:    2174
 Number of atoms for local DF:   25
 Number of fitting functions:  7625 (100.00%)
 Warning: drop high-lying PAOs                     6
 Number of occupied orbitals:    46
 Number of virtual  orbitals:  2043
 Number of Cholesky vectors:      8
 Number of NAFs:               1748  (22.92%)
 MP2 energy in ED [au]:          -0.088009471363
 CPU time [min]: 10082.346                   Wall time [min]:   300.956
 
 MO:    84
 Number of atoms in domain:      25
 Number of atomic orbitals:    2174
 Number of atoms for local DF:   25
 Number of fitting functions:  7625 (100.00%)
 Warning: drop high-lying PAOs                     6
 Number of occupied orbitals:    46
 Number of virtual  orbitals:  2043
 Number of Cholesky vectors:      8
 Number of NAFs:               1745  (22.89%)
 MP2 energy in ED [au]:          -0.088008169777
 CPU time [min]: 10179.853                   Wall time [min]:   303.656
 
 MO:    85
 Number of atoms in domain:      25
 Number of atomic orbitals:    2174
 Number of atoms for local DF:   25
 Number of fitting functions:  7625 (100.00%)
 Warning: drop high-lying PAOs                     6
 Number of occupied orbitals:    47
 Number of virtual  orbitals:  2043
 Number of Cholesky vectors:      8
 Number of NAFs:               1780  (23.34%)
 MP2 energy in ED [au]:          -0.088012977291
 CPU time [min]: 10277.129                   Wall time [min]:   306.380
 
 MO:    86
 Number of atoms in domain:      25
 Number of atomic orbitals:    2174
 Number of atoms for local DF:   25
 Number of fitting functions:  7625 (100.00%)
 Warning: drop high-lying PAOs                     6
 Number of occupied orbitals:    80
 Number of virtual  orbitals:  2043
 Number of Cholesky vectors:      8
 Number of NAFs:               2693  (35.32%)
 MP2 energy in ED [au]:          -0.089772401228
 CPU time [min]: 10419.238                   Wall time [min]:   310.774
 
 MO:    87
 Number of atoms in domain:      25
 Number of atomic orbitals:    2174
 Number of atoms for local DF:   25
 Number of fitting functions:  7625 (100.00%)
 Warning: drop high-lying PAOs                     6
 Number of occupied orbitals:    55
 Number of virtual  orbitals:  2043
 Number of Cholesky vectors:      8
 Number of NAFs:               2078  (27.25%)
 MP2 energy in ED [au]:          -0.090500096586
 CPU time [min]: 10525.891                   Wall time [min]:   313.872
 
 MO:    88
 Number of atoms in domain:      25
 Number of atomic orbitals:    2174
 Number of atoms for local DF:   25
 Number of fitting functions:  7625 (100.00%)
 Warning: drop high-lying PAOs                     6
 Number of occupied orbitals:    82
 Number of virtual  orbitals:  2043
 Number of Cholesky vectors:      8
 Number of NAFs:               2803  (36.76%)
 MP2 energy in ED [au]:          -0.092036254398
 CPU time [min]: 10669.453                   Wall time [min]:   318.370
 
 MO:    89
 Number of atoms in domain:      25
 Number of atomic orbitals:    2174
 Number of atoms for local DF:   25
 Number of fitting functions:  7625 (100.00%)
 Warning: drop high-lying PAOs                     6
 Number of occupied orbitals:    47
 Number of virtual  orbitals:  2043
 Number of Cholesky vectors:      8
 Number of NAFs:               1780  (23.34%)
 MP2 energy in ED [au]:          -0.088013391732
 CPU time [min]: 10766.193                   Wall time [min]:   321.106
 
 MO:    90
 Number of atoms in domain:      25
 Number of atomic orbitals:    2174
 Number of atoms for local DF:   25
 Number of fitting functions:  7625 (100.00%)
 Warning: drop high-lying PAOs                     6
 Number of occupied orbitals:    46
 Number of virtual  orbitals:  2043
 Number of Cholesky vectors:      8
 Number of NAFs:               1747  (22.91%)
 MP2 energy in ED [au]:          -0.088008772824
 CPU time [min]: 10860.129                   Wall time [min]:   323.790
 
 MO:    91
 Number of atoms in domain:      25
 Number of atomic orbitals:    2174
 Number of atoms for local DF:   25
 Number of fitting functions:  7625 (100.00%)
 Warning: drop high-lying PAOs                     6
 Number of occupied orbitals:    82
 Number of virtual  orbitals:  2043
 Number of Cholesky vectors:      8
 Number of NAFs:               2803  (36.76%)
 MP2 energy in ED [au]:          -0.092032379814
 CPU time [min]: 11002.208                   Wall time [min]:   328.130
 
 MO:    92
 Number of atoms in domain:      25
 Number of atomic orbitals:    2174
 Number of atoms for local DF:   25
 Number of fitting functions:  7625 (100.00%)
 Warning: drop high-lying PAOs                     6
 Number of occupied orbitals:    47
 Number of virtual  orbitals:  2043
 Number of Cholesky vectors:      8
 Number of NAFs:               1780  (23.34%)
 MP2 energy in ED [au]:          -0.088010490943
 CPU time [min]: 11099.331                   Wall time [min]:   330.897
 
 MO:    93
 Number of atoms in domain:      25
 Number of atomic orbitals:    2174
 Number of atoms for local DF:   25
 Number of fitting functions:  7625 (100.00%)
 Warning: drop high-lying PAOs                     6
 Number of occupied orbitals:    80
 Number of virtual  orbitals:  2043
 Number of Cholesky vectors:      8
 Number of NAFs:               2693  (35.32%)
 MP2 energy in ED [au]:          -0.089772124658
 CPU time [min]: 11236.224                   Wall time [min]:   335.141
 
 MO:    94
 Number of atoms in domain:      25
 Number of atomic orbitals:    2174
 Number of atoms for local DF:   25
 Number of fitting functions:  7625 (100.00%)
 Warning: drop high-lying PAOs                     6
 Number of occupied orbitals:    46
 Number of virtual  orbitals:  2043
 Number of Cholesky vectors:      8
 Number of NAFs:               1748  (22.92%)
 MP2 energy in ED [au]:          -0.088006676519
 CPU time [min]: 11331.074                   Wall time [min]:   337.824
 
 MO:    95
 Number of atoms in domain:      25
 Number of atomic orbitals:    2174
 Number of atoms for local DF:   25
 Number of fitting functions:  7625 (100.00%)
 Warning: drop high-lying PAOs                     6
 Number of occupied orbitals:    82
 Number of virtual  orbitals:  2043
 Number of Cholesky vectors:      8
 Number of NAFs:               2803  (36.76%)
 MP2 energy in ED [au]:          -0.092030843067
 CPU time [min]: 11471.343                   Wall time [min]:   342.173
 
 MO:    96
 Number of atoms in domain:      25
 Number of atomic orbitals:    2174
 Number of atoms for local DF:   25
 Number of fitting functions:  7625 (100.00%)
 Warning: drop high-lying PAOs                     6
 Number of occupied orbitals:    82
 Number of virtual  orbitals:  2043
 Number of Cholesky vectors:      8
 Number of NAFs:               2803  (36.76%)
 MP2 energy in ED [au]:          -0.092037626430
 CPU time [min]: 11615.529                   Wall time [min]:   346.626
 
 MO:    97
 Number of atoms in domain:      25
 Number of atomic orbitals:    2174
 Number of atoms for local DF:   25
 Number of fitting functions:  7625 (100.00%)
 Warning: drop high-lying PAOs                     6
 Number of occupied orbitals:    80
 Number of virtual  orbitals:  2043
 Number of Cholesky vectors:      8
 Number of NAFs:               2693  (35.32%)
 MP2 energy in ED [au]:          -0.089770773439
 CPU time [min]: 11754.835                   Wall time [min]:   350.993
 
 MO:    98
 Number of atoms in domain:      25
 Number of atomic orbitals:    2174
 Number of atoms for local DF:   25
 Number of fitting functions:  7625 (100.00%)
 Warning: drop high-lying PAOs                     6
 Number of occupied orbitals:    80
 Number of virtual  orbitals:  2043
 Number of Cholesky vectors:      8
 Number of NAFs:               2693  (35.32%)
 MP2 energy in ED [au]:          -0.089767243688
 CPU time [min]: 11890.401                   Wall time [min]:   355.281
 
 MO:    99
 Number of atoms in domain:      25
 Number of atomic orbitals:    2174
 Number of atoms for local DF:   25
 Number of fitting functions:  7625 (100.00%)
 Warning: drop high-lying PAOs                     6
 Number of occupied orbitals:    82
 Number of virtual  orbitals:  2043
 Number of Cholesky vectors:      8
 Number of NAFs:               2803  (36.76%)
 MP2 energy in ED [au]:          -0.092036593352
 CPU time [min]: 12034.507                   Wall time [min]:   359.754
 
 MO:   100
 Number of atoms in domain:      25
 Number of atomic orbitals:    2174
 Number of atoms for local DF:   25
 Number of fitting functions:  7625 (100.00%)
 Warning: drop high-lying PAOs                     6
 Number of occupied orbitals:    82
 Number of virtual  orbitals:  2043
 Number of Cholesky vectors:      8
 Number of NAFs:               2803  (36.76%)
 MP2 energy in ED [au]:          -0.092035458765
 CPU time [min]: 12178.331                   Wall time [min]:   364.266
 
 **********************************************************************
 Dimensions of the extended domains:    Minimum / Average / Maximum
 
 Number of atoms in domain:                  25      25.0        25
 Number of atomic orbitals:                2174    2174.0      2174
 Number of fitting functions:              7625    7625.0      7625
 Number of occupied localized MOs:           44      65.1       100
 Number of PAOs:                           2043    2043.0      2043
 Number of NAFs:                           1608    2279.7      3265
 
 **********************************************************************
 Final local correlation results
 
 Sum of pair energies [au]:                    -0.002010100237    (0.023%)
 Sum of energy corrections [au]:                0.000000000000    (0.000%)
 Sum of LMO contributions [au]:                -8.703989706057
 
 Reference energy [au]:                    -12289.361434982904
 MP2 contribution [au]:                        -2.350619947699
 B2PLYP energy [au]:                       -12291.712054930604
 
 **********************************************************************
  Time of manipulations in the EDs:      max CPU/Wall [s]  all CPU/Wall [min]
 
 PD construction & multipole pair E    6808.55   171.96   113.48     2.87
 Construct MO basis of the ED            84.66     2.12   124.75     3.13
 (mu,nu|P) evaluation & trf 2 (ai|P)   7931.49   266.06  9710.07   299.31
 Assembly of (Ia|jb)                    163.14     5.20   178.67     5.28
 Build W_PQ (Jai or Jpi part)           296.78     8.65   338.49     9.41
 Diagonalize W_PQ                       615.48    15.43   801.75    20.09
 Transform (ai|P) to the NAF basis      274.17     8.03   252.33     7.48
 Evaluate MP2 energy of the ED          648.28    16.25   533.97    13.38
 Total of the above for all EDs       10013.99   321.74 11940.01   358.09
 
 **********************************************************************
 Maximum memory requirement [MB]:       
 
 PD construction & multipole pair E        498.1
 AO integral evaluation in the EDs        7237.2
 (mu,nu|P) evaluation & trf 2 (aI|P)     25100.0
 NAF construction and trf to NAFs        19325.3
 Evaluate MP2 energy in the EDs           8699.8
 
 ************************ 2022-01-11 01:43:24 *************************
                      Normal termination of mrcc.
 **********************************************************************
