
                                 *****************
                                 * O   R   C   A *
                                 *****************

                                            #,                                       
                                            ###                                      
                                            ####                                     
                                            #####                                    
                                            ######                                   
                                           ########,                                 
                                     ,,################,,,,,                         
                               ,,#################################,,                 
                          ,,##########################################,,             
                       ,#########################################, ''#####,          
                    ,#############################################,,   '####,        
                  ,##################################################,,,,####,       
                ,###########''''           ''''###############################       
              ,#####''   ,,,,##########,,,,          '''####'''          '####       
            ,##' ,,,,###########################,,,                        '##       
           ' ,,###''''                  '''############,,,                           
         ,,##''                                '''############,,,,        ,,,,,,###''
      ,#''                                            '''#######################'''  
     '                                                          ''''####''''         
             ,#######,   #######,   ,#######,      ##                                
            ,#'     '#,  ##    ##  ,#'     '#,    #''#        ######   ,####,        
            ##       ##  ##   ,#'  ##            #'  '#       #        #'  '#        
            ##       ##  #######   ##           ,######,      #####,   #    #        
            '#,     ,#'  ##    ##  '#,     ,#' ,#      #,         ##   #,  ,#        
             '#######'   ##     ##  '#######'  #'      '#     #####' # '####'        



                  #######################################################
                  #                        -***-                        #
                  #          Department of theory and spectroscopy      #
                  #    Directorship and core code : Frank Neese         #
                  #        Max Planck Institute fuer Kohlenforschung    #
                  #                Kaiser Wilhelm Platz 1               #
                  #                 D-45470 Muelheim/Ruhr               #
                  #                      Germany                        #
                  #                                                     #
                  #                  All rights reserved                #
                  #                        -***-                        #
                  #######################################################


                         Program Version 5.0.1 -  RELEASE  -


 With contributions from (in alphabetic order):
   Daniel Aravena         : Magnetic Suceptibility
   Michael Atanasov       : Ab Initio Ligand Field Theory (pilot matlab implementation)
   Alexander A. Auer      : GIAO ZORA, VPT2 properties, NMR spectrum
   Ute Becker             : Parallelization
   Giovanni Bistoni       : ED, misc. LED, open-shell LED, HFLD
   Martin Brehm           : Molecular dynamics
   Dmytro Bykov           : SCF Hessian
   Vijay G. Chilkuri      : MRCI spin determinant printing, contributions to CSF-ICE
   Dipayan Datta          : RHF DLPNO-CCSD density
   Achintya Kumar Dutta   : EOM-CC, STEOM-CC
   Dmitry Ganyushin       : Spin-Orbit,Spin-Spin,Magnetic field MRCI
   Miquel Garcia          : C-PCM and meta-GGA Hessian, CC/C-PCM, Gaussian charge scheme
   Yang Guo               : DLPNO-NEVPT2, F12-NEVPT2, CIM, IAO-localization
   Andreas Hansen         : Spin unrestricted coupled pair/coupled cluster methods
   Benjamin Helmich-Paris : MC-RPA, TRAH-SCF, COSX integrals
   Lee Huntington         : MR-EOM, pCC
   Robert Izsak           : Overlap fitted RIJCOSX, COSX-SCS-MP3, EOM
   Marcus Kettner         : VPT2
   Christian Kollmar      : KDIIS, OOCD, Brueckner-CCSD(T), CCSD density, CASPT2, CASPT2-K
   Simone Kossmann        : Meta GGA functionals, TD-DFT gradient, OOMP2, MP2 Hessian
   Martin Krupicka        : Initial AUTO-CI
   Lucas Lang             : DCDCAS
   Marvin Lechner         : AUTO-CI (C++ implementation), FIC-MRCC
   Dagmar Lenk            : GEPOL surface, SMD
   Dimitrios Liakos       : Extrapolation schemes; Compound Job, initial MDCI parallelization
   Dimitrios Manganas     : Further ROCIS development; embedding schemes
   Dimitrios Pantazis     : SARC Basis sets
   Anastasios Papadopoulos: AUTO-CI, single reference methods and gradients
   Taras Petrenko         : DFT Hessian,TD-DFT gradient, ASA, ECA, R-Raman, ABS, FL, XAS/XES, NRVS
   Peter Pinski           : DLPNO-MP2, DLPNO-MP2 Gradient
   Christoph Reimann      : Effective Core Potentials
   Marius Retegan         : Local ZFS, SOC
   Christoph Riplinger    : Optimizer, TS searches, QM/MM, DLPNO-CCSD(T), (RO)-DLPNO pert. Triples
   Tobias Risthaus        : Range-separated hybrids, TD-DFT gradient, RPA, STAB
   Michael Roemelt        : Original ROCIS implementation
   Masaaki Saitow         : Open-shell DLPNO-CCSD energy and density
   Barbara Sandhoefer     : DKH picture change effects
   Avijit Sen             : IP-ROCIS
   Kantharuban Sivalingam : CASSCF convergence, NEVPT2, FIC-MRCI
   Bernardo de Souza      : ESD, SOC TD-DFT
   Georgi Stoychev        : AutoAux, RI-MP2 NMR, DLPNO-MP2 response
   Willem Van den Heuvel  : Paramagnetic NMR
   Boris Wezisla          : Elementary symmetry handling
   Frank Wennmohs         : Technical directorship


 We gratefully acknowledge several colleagues who have allowed us to
 interface, adapt or use parts of their codes:
   Stefan Grimme, W. Hujo, H. Kruse, P. Pracht,  : VdW corrections, initial TS optimization,
                  C. Bannwarth, S. Ehlert          DFT functionals, gCP, sTDA/sTD-DF
   Ed Valeev, F. Pavosevic, A. Kumar             : LibInt (2-el integral package), F12 methods
   Garnet Chan, S. Sharma, J. Yang, R. Olivares  : DMRG
   Ulf Ekstrom                                   : XCFun DFT Library
   Mihaly Kallay                                 : mrcc  (arbitrary order and MRCC methods)
   Jiri Pittner, Ondrej Demel                    : Mk-CCSD
   Frank Weinhold                                : gennbo (NPA and NBO analysis)
   Christopher J. Cramer and Donald G. Truhlar   : smd solvation model
   Lars Goerigk                                  : TD-DFT with DH, B97 family of functionals
   V. Asgeirsson, H. Jonsson                     : NEB implementation
   FAccTs GmbH                                   : IRC, NEB, NEB-TS, DLPNO-Multilevel, CI-OPT
                                                   MM, QMMM, 2- and 3-layer-ONIOM, Crystal-QMMM,
                                                   LR-CPCM, SF, NACMEs, symmetry and pop. for TD-DFT,
                                                   nearIR, NL-DFT gradient (VV10), updates on ESD,
                                                   ML-optimized integration grids
   S Lehtola, MJT Oliveira, MAL Marques          : LibXC Library
   Liviu Ungur et al                             : ANISO software


 Your calculation uses the libint2 library for the computation of 2-el integrals
 For citations please refer to: http://libint.valeyev.net

 Your ORCA version has been built with support for libXC version: 5.1.0
 For citations please refer to: https://tddft.org/programs/libxc/

 This ORCA versions uses:
   CBLAS   interface :  Fast vector & matrix operations
   LAPACKE interface :  Fast linear algebra routines
   SCALAPACK package :  Parallel linear algebra routines
   Shared memory     :  Shared parallel matrices
   BLAS/LAPACK       :  OpenBLAS 0.3.15  USE64BITINT DYNAMIC_ARCH NO_AFFINITY SkylakeX SINGLE_THREADED
        Core in use  :  SkylakeX
   Copyright (c) 2011-2014, The OpenBLAS Project


Setting NCore(Ti) from 10 to 10
Setting NCore(O ) from 2 to 2
SCAN-COORDS
================================================================================

----- Orbital basis set information -----
Your calculation utilizes the basis: def2-SVP
   F. Weigend and R. Ahlrichs, Phys. Chem. Chem. Phys. 7, 3297 (2005).

The basis set includes element-specific modifications.

Your calculation utilizes the basis: aug-cc-pVTZ 
    H, B-Ne : Obtained from the ccRepo (grant-hill.group.shef.ac.uk/ccrepo) Feb. 2017
              R. A. Kendall, T. H. Dunning, Jr., R. J. Harrison, J. Chem. Phys. 96, 6796 (1992)
         He : Obtained from the ccRepo (grant-hill.group.shef.ac.uk/ccrepo) Feb. 2017
              D. E. Woon, T. H. Dunning, Jr., J. Chem. Phys. 100, 2975 (1994)
  Li-Be, Na : Obtained from the ccRepo (grant-hill.group.shef.ac.uk/ccrepo) Feb. 2017
              B. P. Prascher, D. E. Woon, K. A. Peterson, T. H. Dunning, Jr., A. K. Wilson, Theor. Chem. Acc. 128, 69 (2011)
         Mg : Obtained from the Peterson Research Group Website (tyr0.chem.wsu.edu/~kipeters) Feb. 2017
              B. P. Prascher, D. E. Woon, K. A. Peterson, T. H. Dunning, Jr., A. K. Wilson, Theor. Chem. Acc. 128, 69 (2011)
      Al-Ar : Obtained from the ccRepo (grant-hill.group.shef.ac.uk/ccrepo) Feb. 2017
              D. E. Woon, T. H. Dunning, Jr., J. Chem. Phys. 98, 1358 (1993)
      Sc-Zn : Obtained from the ccRepo (grant-hill.group.shef.ac.uk/ccrepo) Feb. 2017
              N. B. Balabanov, K. A. Peterson, J. Chem. Phys. 123, 064107 (2005)
              N. B. Balabanov, K. A. Peterson, J. Chem. Phys. 125, 074110 (2006)
      Ga-Kr : Obtained from the ccRepo (grant-hill.group.shef.ac.uk/ccrepo) Feb. 2017
              A. K. Wilson, D. E. Woon, K. A. Peterson, T. H. Dunning, Jr., J. Chem. Phys. 110, 7667 (1999)
     Ag, Au : Obtained from the Peterson Research Group Website (tyr0.chem.wsu.edu/~kipeters) Feb. 2017
              K. A. Peterson, C. Puzzarini, Theor. Chem. Acc. 114, 283 (2005)

Your calculation utilizes the basis: cc-pwCVTZ 
             H : cc-pVTZ. Obtained from the ccRepo (grant-hill.group.shef.ac.uk/ccrepo) Feb. 2017
                 T. H. Dunning, Jr., J. Chem. Phys. 90, 1007 (1989)
            He : cc-pVTZ. Obtained from the ccRepo (grant-hill.group.shef.ac.uk/ccrepo) Feb. 2017
                 D. E. Woon, T. H. Dunning, Jr., J. Chem. Phys. 100, 2975 (1994)
  Li-Be, Na-Mg : Obtained from the ccRepo (grant-hill.group.shef.ac.uk/ccrepo) Feb. 2017
                 B. P. Prascher, D. E. Woon, K. A. Peterson, T. H. Dunning, Jr., A. K. Wilson, Theor. Chem. Acc. 128, 69 (2011)
          B-Ne : Obtained from the ccRepo (grant-hill.group.shef.ac.uk/ccrepo) Feb. 2017
                 K. A. Peterson, T. H. Dunning, Jr., J. Chem. Phys. 117, 10548 (2002)
         Al-Ar : Obtained from the EMSL Basis Set Exchange (bse.pnl.gov) Feb. 2017
                 K. A. Peterson, T. H. Dunning, Jr., J. Chem. Phys. 117, 10548 (2002)
            Ca : Obtained from the Peterson Research Group Website (tyr0.chem.wsu.edu/~kipeters) Feb. 2017
                 J. Koput, K. A. Peterson, J. Phys. Chem. 106, 9595 (2002)
         Sc-Zn : Obtained from the ccRepo (grant-hill.group.shef.ac.uk/ccrepo) Feb. 2017
                 N. B. Balabanov, K. A. Peterson, J. Chem. Phys. 123, 064107 (2005)
                 N. B. Balabanov, K. A. Peterson, J. Chem. Phys. 125, 074110 (2006)
         Ga-Kr : Obtained from the Peterson Research Group Website (tyr0.chem.wsu.edu/~kipeters) Feb. 2017
                 K. A. Peterson, K. E. Yousaf, J. Chem. Phys. 133, 174116 (2010)
                 N. J. DeYonker, K. A. Peterson, A. K. Wilson, J. Phys. Chem. A 111, 11383 (2007)
        Ag, Au : Obtained from the Peterson Research Group Website (tyr0.chem.wsu.edu/~kipeters) Feb. 2017
                 K. A. Peterson, C. Puzzarini, Theor. Chem. Acc. 114, 283 (2005)

----- AuxJ basis set information -----
Your calculation utilizes the AutoAux generation procedure.
  G. L. Stoychev, A. A. Auer, F. Neese, J. Chem. Theory Comput. 13, 554 (2017)

----- AuxC basis set information -----
Your calculation utilizes the AutoAux generation procedure.
  G. L. Stoychev, A. A. Auer, F. Neese, J. Chem. Theory Comput. 13, 554 (2017)

================================================================================
                                        WARNINGS
                       Please study these warnings very carefully!
================================================================================


WARNING: Post HF methods need fully converged wavefunctions
  ===> : Setting SCFConvForced true
         You can overwrite this default with %scf ConvForced false 


WARNING: MDCI localization with Augmented Hessian Foster-Boys
  ===> : Switching off randomization!

INFO   : the flag for use of the SHARK integral package has been found!

================================================================================
                                       INPUT FILE
================================================================================
NAME = orca.inp
|  1> ! VeryTightSCF DLPNO-CCSD(T) NormalPNO RIJCOSX SlowConv DIIS
|  2> %maxcore 60000
|  3> %pal
|  4> nprocs 20
|  5> end
|  6> %pointcharges "orca.bq"
|  7> %method
|  8> Method hf
|  9> RI on
| 10> RunTyp Energy
| 11> NewNCore Ti 10 end
| 12> NewNCore O 2 end
| 13> end
| 14> %basis
| 15> NewGTO O
| 16> "aug-cc-pVTZ"
| 17> end
| 18> NewGTO Ti
| 19> "cc-pwCVTZ"
| 20> end
| 21> Aux "AutoAux"
| 22> AuxC "AutoAux"
| 23> end
| 24> %scf
| 25> HFTyp rhf
| 26> Guess Hueckel
| 27> AutoStart True
| 28> SCFMode Direct
| 29> MaxIter 1000
| 30> sthresh 1e-6
| 31> AutoTRAHIter 100
| 32> end
| 33> %mdci
| 34>     StorageType Shared
| 35> end
| 36> %coords
| 37> CTyp xyz
| 38> Mult 1
| 39> Units angs
| 40>   Charge -16
| 41>   coords
| 42> O:                      0.00000000000    0.00000000000    0.00000000000
| 43> Ti                      0.00000536997    1.48055149700   -1.06892606631
| 44> Ti                      0.00000552101   -1.48055312386   -1.06892138720
| 45> O                       0.00000442396   -0.00000111986   -2.54840301833
| 46> O                      -2.03525914147    1.48054518365   -1.11149385695
| 47> O                       2.03526534753    1.48054527935   -1.11149163807
| 48> O                       2.03526471018   -1.48054700097   -1.11149295951
| 49> O                      -2.03525907462   -1.48054722666   -1.11149503385
| 50> O                      -0.00000037752    2.96109155033   -0.00000271770
| 51> O                      -0.00000037752   -2.96109552160   -0.00000271770
| 52> Ti                      3.25402319191   -0.00000112036   -1.42716202606
| 53> Ti                     -3.25401610555   -0.00000112036   -1.42716202606
| 54> O                       0.00000449994    2.96109199200   -2.54840438198
| 55> O                       0.00000449994   -2.96109507993   -2.54840438198
| 56> O                       3.25402603430   -0.00000063665   -3.23990501486
| 57> O                      -3.25401326317   -0.00000063665   -3.23990501486
| 58> O                      -4.47277394994    1.48054527935   -1.11149163807
| 59> O                       4.47278015600    1.48054518365   -1.11149385695
| 60> O                       4.47278022285   -1.48054722666   -1.11149503385
| 61> O                      -4.47277458729   -1.48054700097   -1.11149295951
| 62> Ti>    4.00000000000   -0.00005220374   -0.00000071014   -4.41288396045
| 63> NewECP
| 64> N_core 0
| 65>   lmax f
| 66>   s 2
| 67>    1      0.860000       9.191690  2
| 68>    2      0.172000       0.008301  2
| 69>   p 2
| 70>    1      0.860000      17.997720  2
| 71>    2      0.172000      -0.032600  2
| 72>   d 2
| 73>    1      1.600000      -9.504310  2
| 74>    2      0.320000      -0.151370  2
| 75>   f 1
| 76>    1      1.000000000    0.000000000 2
| 77> end
| 78> Ti>    4.00000000000    0.00000552101    4.44163394806   -1.06892138720
| 79> NewECP
| 80> N_core 0
| 81>   lmax f
| 82>   s 2
| 83>    1      0.860000       9.191690  2
| 84>    2      0.172000       0.008301  2
| 85>   p 2
| 86>    1      0.860000      17.997720  2
| 87>    2      0.172000      -0.032600  2
| 88>   d 2
| 89>    1      1.600000      -9.504310  2
| 90>    2      0.320000      -0.151370  2
| 91>   f 1
| 92>    1      1.000000000    0.000000000 2
| 93> end
| 94> Ti>    4.00000000000    0.00000536997   -4.44163557493   -1.06892606631
| 95> NewECP
| 96> N_core 0
| 97>   lmax f
| 98>   s 2
| 99>    1      0.860000       9.191690  2
|100>    2      0.172000       0.008301  2
|101>   p 2
|102>    1      0.860000      17.997720  2
|103>    2      0.172000      -0.032600  2
|104>   d 2
|105>    1      1.600000      -9.504310  2
|106>    2      0.320000      -0.151370  2
|107>   f 1
|108>    1      1.000000000    0.000000000 2
|109> end
|110> Ti>    4.00000000000   -3.25401668289    2.96109302555   -1.42716235830
|111> NewECP
|112> N_core 0
|113>   lmax f
|114>   s 2
|115>    1      0.860000       9.191690  2
|116>    2      0.172000       0.008301  2
|117>   p 2
|118>    1      0.860000      17.997720  2
|119>    2      0.172000      -0.032600  2
|120>   d 2
|121>    1      1.600000      -9.504310  2
|122>    2      0.320000      -0.151370  2
|123>   f 1
|124>    1      1.000000000    0.000000000 2
|125> end
|126> Ti>    4.00000000000    3.25402261457    2.96109302555   -1.42716235830
|127> NewECP
|128> N_core 0
|129>   lmax f
|130>   s 2
|131>    1      0.860000       9.191690  2
|132>    2      0.172000       0.008301  2
|133>   p 2
|134>    1      0.860000      17.997720  2
|135>    2      0.172000      -0.032600  2
|136>   d 2
|137>    1      1.600000      -9.504310  2
|138>    2      0.320000      -0.151370  2
|139>   f 1
|140>    1      1.000000000    0.000000000 2
|141> end
|142> Ti>    4.00000000000    3.25402261457   -2.96109404638   -1.42716235830
|143> NewECP
|144> N_core 0
|145>   lmax f
|146>   s 2
|147>    1      0.860000       9.191690  2
|148>    2      0.172000       0.008301  2
|149>   p 2
|150>    1      0.860000      17.997720  2
|151>    2      0.172000      -0.032600  2
|152>   d 2
|153>    1      1.600000      -9.504310  2
|154>    2      0.320000      -0.151370  2
|155>   f 1
|156>    1      1.000000000    0.000000000 2
|157> end
|158> Ti>    4.00000000000   -3.25401668289   -2.96109404638   -1.42716235830
|159> NewECP
|160> N_core 0
|161>   lmax f
|162>   s 2
|163>    1      0.860000       9.191690  2
|164>    2      0.172000       0.008301  2
|165>   p 2
|166>    1      0.860000      17.997720  2
|167>    2      0.172000      -0.032600  2
|168>   d 2
|169>    1      1.600000      -9.504310  2
|170>    2      0.320000      -0.151370  2
|171>   f 1
|172>    1      1.000000000    0.000000000 2
|173> end
|174> Ti>    4.00000000000   -0.00005206359    2.96109301637   -4.41288206312
|175> NewECP
|176> N_core 0
|177>   lmax f
|178>   s 2
|179>    1      0.860000       9.191690  2
|180>    2      0.172000       0.008301  2
|181>   p 2
|182>    1      0.860000      17.997720  2
|183>    2      0.172000      -0.032600  2
|184>   d 2
|185>    1      1.600000      -9.504310  2
|186>    2      0.320000      -0.151370  2
|187>   f 1
|188>    1      1.000000000    0.000000000 2
|189> end
|190> Ti>    4.00000000000   -0.00005206359   -2.96109405556   -4.41288206312
|191> NewECP
|192> N_core 0
|193>   lmax f
|194>   s 2
|195>    1      0.860000       9.191690  2
|196>    2      0.172000       0.008301  2
|197>   p 2
|198>    1      0.860000      17.997720  2
|199>    2      0.172000      -0.032600  2
|200>   d 2
|201>    1      1.600000      -9.504310  2
|202>    2      0.320000      -0.151370  2
|203>   f 1
|204>    1      1.000000000    0.000000000 2
|205> end
|206> Ti>    4.00000000000    3.25395215162    1.48054533538   -4.59991327640
|207> NewECP
|208> N_core 0
|209>   lmax f
|210>   s 2
|211>    1      0.860000       9.191690  2
|212>    2      0.172000       0.008301  2
|213>   p 2
|214>    1      0.860000      17.997720  2
|215>    2      0.172000      -0.032600  2
|216>   d 2
|217>    1      1.600000      -9.504310  2
|218>    2      0.320000      -0.151370  2
|219>   f 1
|220>    1      1.000000000    0.000000000 2
|221> end
|222> Ti>    4.00000000000    3.25395195581   -1.48054722422   -4.59991284715
|223> NewECP
|224> N_core 0
|225>   lmax f
|226>   s 2
|227>    1      0.860000       9.191690  2
|228>    2      0.172000       0.008301  2
|229>   p 2
|230>    1      0.860000      17.997720  2
|231>    2      0.172000      -0.032600  2
|232>   d 2
|233>    1      1.600000      -9.504310  2
|234>    2      0.320000      -0.151370  2
|235>   f 1
|236>    1      1.000000000    0.000000000 2
|237> end
|238> Ti>    4.00000000000   -3.25408714585    1.48054533538   -4.59991327640
|239> NewECP
|240> N_core 0
|241>   lmax f
|242>   s 2
|243>    1      0.860000       9.191690  2
|244>    2      0.172000       0.008301  2
|245>   p 2
|246>    1      0.860000      17.997720  2
|247>    2      0.172000      -0.032600  2
|248>   d 2
|249>    1      1.600000      -9.504310  2
|250>    2      0.320000      -0.151370  2
|251>   f 1
|252>    1      1.000000000    0.000000000 2
|253> end
|254> Ti>    4.00000000000   -3.25408734165   -1.48054722422   -4.59991284715
|255> NewECP
|256> N_core 0
|257>   lmax f
|258>   s 2
|259>    1      0.860000       9.191690  2
|260>    2      0.172000       0.008301  2
|261>   p 2
|262>    1      0.860000      17.997720  2
|263>    2      0.172000      -0.032600  2
|264>   d 2
|265>    1      1.600000      -9.504310  2
|266>    2      0.320000      -0.151370  2
|267>   f 1
|268>    1      1.000000000    0.000000000 2
|269> end
|270> Ti>    4.00000000000   -6.50803392749    1.48055149700   -1.06892606631
|271> NewECP
|272> N_core 0
|273>   lmax f
|274>   s 2
|275>    1      0.860000       9.191690  2
|276>    2      0.172000       0.008301  2
|277>   p 2
|278>    1      0.860000      17.997720  2
|279>    2      0.172000      -0.032600  2
|280>   d 2
|281>    1      1.600000      -9.504310  2
|282>    2      0.320000      -0.151370  2
|283>   f 1
|284>    1      1.000000000    0.000000000 2
|285> end
|286> Ti>    4.00000000000    6.50804466744    1.48055149700   -1.06892606631
|287> NewECP
|288> N_core 0
|289>   lmax f
|290>   s 2
|291>    1      0.860000       9.191690  2
|292>    2      0.172000       0.008301  2
|293>   p 2
|294>    1      0.860000      17.997720  2
|295>    2      0.172000      -0.032600  2
|296>   d 2
|297>    1      1.600000      -9.504310  2
|298>    2      0.320000      -0.151370  2
|299>   f 1
|300>    1      1.000000000    0.000000000 2
|301> end
|302> Ti>    4.00000000000    6.50804481848   -1.48055312386   -1.06892138720
|303> NewECP
|304> N_core 0
|305>   lmax f
|306>   s 2
|307>    1      0.860000       9.191690  2
|308>    2      0.172000       0.008301  2
|309>   p 2
|310>    1      0.860000      17.997720  2
|311>    2      0.172000      -0.032600  2
|312>   d 2
|313>    1      1.600000      -9.504310  2
|314>    2      0.320000      -0.151370  2
|315>   f 1
|316>    1      1.000000000    0.000000000 2
|317> end
|318> Ti>    4.00000000000   -6.50803377645   -1.48055312386   -1.06892138720
|319> NewECP
|320> N_core 0
|321>   lmax f
|322>   s 2
|323>    1      0.860000       9.191690  2
|324>    2      0.172000       0.008301  2
|325>   p 2
|326>    1      0.860000      17.997720  2
|327>    2      0.172000      -0.032600  2
|328>   d 2
|329>    1      1.600000      -9.504310  2
|330>    2      0.320000      -0.151370  2
|331>   f 1
|332>    1      1.000000000    0.000000000 2
|333> end
|334> Ti>    4.00000000000   -3.25401610555    5.92218595157   -1.42716202606
|335> NewECP
|336> N_core 0
|337>   lmax f
|338>   s 2
|339>    1      0.860000       9.191690  2
|340>    2      0.172000       0.008301  2
|341>   p 2
|342>    1      0.860000      17.997720  2
|343>    2      0.172000      -0.032600  2
|344>   d 2
|345>    1      1.600000      -9.504310  2
|346>    2      0.320000      -0.151370  2
|347>   f 1
|348>    1      1.000000000    0.000000000 2
|349> end
|350> Ti>    4.00000000000    3.25402319191    5.92218595157   -1.42716202606
|351> NewECP
|352> N_core 0
|353>   lmax f
|354>   s 2
|355>    1      0.860000       9.191690  2
|356>    2      0.172000       0.008301  2
|357>   p 2
|358>    1      0.860000      17.997720  2
|359>    2      0.172000      -0.032600  2
|360>   d 2
|361>    1      1.600000      -9.504310  2
|362>    2      0.320000      -0.151370  2
|363>   f 1
|364>    1      1.000000000    0.000000000 2
|365> end
|366> Ti>    4.00000000000    3.25402319191   -5.92218819228   -1.42716202606
|367> NewECP
|368> N_core 0
|369>   lmax f
|370>   s 2
|371>    1      0.860000       9.191690  2
|372>    2      0.172000       0.008301  2
|373>   p 2
|374>    1      0.860000      17.997720  2
|375>    2      0.172000      -0.032600  2
|376>   d 2
|377>    1      1.600000      -9.504310  2
|378>    2      0.320000      -0.151370  2
|379>   f 1
|380>    1      1.000000000    0.000000000 2
|381> end
|382> Ti>    4.00000000000   -3.25401610555   -5.92218819228   -1.42716202606
|383> NewECP
|384> N_core 0
|385>   lmax f
|386>   s 2
|387>    1      0.860000       9.191690  2
|388>    2      0.172000       0.008301  2
|389>   p 2
|390>    1      0.860000      17.997720  2
|391>    2      0.172000      -0.032600  2
|392>   d 2
|393>    1      1.600000      -9.504310  2
|394>    2      0.320000      -0.151370  2
|395>   f 1
|396>    1      1.000000000    0.000000000 2
|397> end
|398> Ti>    4.00000000000    3.25395195581    4.44163984770   -4.59991284715
|399> NewECP
|400> N_core 0
|401>   lmax f
|402>   s 2
|403>    1      0.860000       9.191690  2
|404>    2      0.172000       0.008301  2
|405>   p 2
|406>    1      0.860000      17.997720  2
|407>    2      0.172000      -0.032600  2
|408>   d 2
|409>    1      1.600000      -9.504310  2
|410>    2      0.320000      -0.151370  2
|411>   f 1
|412>    1      1.000000000    0.000000000 2
|413> end
|414> Ti>    4.00000000000    3.25395215162   -4.44164173655   -4.59991327640
|415> NewECP
|416> N_core 0
|417>   lmax f
|418>   s 2
|419>    1      0.860000       9.191690  2
|420>    2      0.172000       0.008301  2
|421>   p 2
|422>    1      0.860000      17.997720  2
|423>    2      0.172000      -0.032600  2
|424>   d 2
|425>    1      1.600000      -9.504310  2
|426>    2      0.320000      -0.151370  2
|427>   f 1
|428>    1      1.000000000    0.000000000 2
|429> end
|430> Ti>    4.00000000000   -3.25408734165    4.44163984770   -4.59991284715
|431> NewECP
|432> N_core 0
|433>   lmax f
|434>   s 2
|435>    1      0.860000       9.191690  2
|436>    2      0.172000       0.008301  2
|437>   p 2
|438>    1      0.860000      17.997720  2
|439>    2      0.172000      -0.032600  2
|440>   d 2
|441>    1      1.600000      -9.504310  2
|442>    2      0.320000      -0.151370  2
|443>   f 1
|444>    1      1.000000000    0.000000000 2
|445> end
|446> Ti>    4.00000000000   -3.25408714585   -4.44164173655   -4.59991327640
|447> NewECP
|448> N_core 0
|449>   lmax f
|450>   s 2
|451>    1      0.860000       9.191690  2
|452>    2      0.172000       0.008301  2
|453>   p 2
|454>    1      0.860000      17.997720  2
|455>    2      0.172000      -0.032600  2
|456>   d 2
|457>    1      1.600000      -9.504310  2
|458>    2      0.320000      -0.151370  2
|459>   f 1
|460>    1      1.000000000    0.000000000 2
|461> end
|462> Ti>    4.00000000000   -0.00005220374    5.92218636178   -4.41288396045
|463> NewECP
|464> N_core 0
|465>   lmax f
|466>   s 2
|467>    1      0.860000       9.191690  2
|468>    2      0.172000       0.008301  2
|469>   p 2
|470>    1      0.860000      17.997720  2
|471>    2      0.172000      -0.032600  2
|472>   d 2
|473>    1      1.600000      -9.504310  2
|474>    2      0.320000      -0.151370  2
|475>   f 1
|476>    1      1.000000000    0.000000000 2
|477> end
|478> Ti>    4.00000000000   -0.00005220374   -5.92218778207   -4.41288396045
|479> NewECP
|480> N_core 0
|481>   lmax f
|482>   s 2
|483>    1      0.860000       9.191690  2
|484>    2      0.172000       0.008301  2
|485>   p 2
|486>    1      0.860000      17.997720  2
|487>    2      0.172000      -0.032600  2
|488>   d 2
|489>    1      1.600000      -9.504310  2
|490>    2      0.320000      -0.151370  2
|491>   f 1
|492>    1      1.000000000    0.000000000 2
|493> end
|494> Ti>    4.00000000000    0.00000536997    7.40273856892   -1.06892606631
|495> NewECP
|496> N_core 0
|497>   lmax f
|498>   s 2
|499>    1      0.860000       9.191690  2
|500>    2      0.172000       0.008301  2
|501>   p 2
|502>    1      0.860000      17.997720  2
|503>    2      0.172000      -0.032600  2
|504>   d 2
|505>    1      1.600000      -9.504310  2
|506>    2      0.320000      -0.151370  2
|507>   f 1
|508>    1      1.000000000    0.000000000 2
|509> end
|510> Ti>    4.00000000000    0.00000552101   -7.40274019579   -1.06892138720
|511> NewECP
|512> N_core 0
|513>   lmax f
|514>   s 2
|515>    1      0.860000       9.191690  2
|516>    2      0.172000       0.008301  2
|517>   p 2
|518>    1      0.860000      17.997720  2
|519>    2      0.172000      -0.032600  2
|520>   d 2
|521>    1      1.600000      -9.504310  2
|522>    2      0.320000      -0.151370  2
|523>   f 1
|524>    1      1.000000000    0.000000000 2
|525> end
|526> Ti>    4.00000000000    6.50798709372   -0.00000071014   -4.41288396045
|527> NewECP
|528> N_core 0
|529>   lmax f
|530>   s 2
|531>    1      0.860000       9.191690  2
|532>    2      0.172000       0.008301  2
|533>   p 2
|534>    1      0.860000      17.997720  2
|535>    2      0.172000      -0.032600  2
|536>   d 2
|537>    1      1.600000      -9.504310  2
|538>    2      0.320000      -0.151370  2
|539>   f 1
|540>    1      1.000000000    0.000000000 2
|541> end
|542> Ti>    4.00000000000   -6.50809150121   -0.00000071014   -4.41288396045
|543> NewECP
|544> N_core 0
|545>   lmax f
|546>   s 2
|547>    1      0.860000       9.191690  2
|548>    2      0.172000       0.008301  2
|549>   p 2
|550>    1      0.860000      17.997720  2
|551>    2      0.172000      -0.032600  2
|552>   d 2
|553>    1      1.600000      -9.504310  2
|554>    2      0.320000      -0.151370  2
|555>   f 1
|556>    1      1.000000000    0.000000000 2
|557> end
|558> Ti>    4.00000000000   -0.00000306899    1.48054576566   -7.78540932970
|559> NewECP
|560> N_core 0
|561>   lmax f
|562>   s 2
|563>    1      0.860000       9.191690  2
|564>    2      0.172000       0.008301  2
|565>   p 2
|566>    1      0.860000      17.997720  2
|567>    2      0.172000      -0.032600  2
|568>   d 2
|569>    1      1.600000      -9.504310  2
|570>    2      0.320000      -0.151370  2
|571>   f 1
|572>    1      1.000000000    0.000000000 2
|573> end
|574> Ti>    4.00000000000   -0.00000306899   -1.48054777030   -7.78540932970
|575> NewECP
|576> N_core 0
|577>   lmax f
|578>   s 2
|579>    1      0.860000       9.191690  2
|580>    2      0.172000       0.008301  2
|581>   p 2
|582>    1      0.860000      17.997720  2
|583>    2      0.172000      -0.032600  2
|584>   d 2
|585>    1      1.600000      -9.504310  2
|586>    2      0.320000      -0.151370  2
|587>   f 1
|588>    1      1.000000000    0.000000000 2
|589> end
|590> Ti>    4.00000000000   -6.50803377645    4.44163394806   -1.06892138720
|591> NewECP
|592> N_core 0
|593>   lmax f
|594>   s 2
|595>    1      0.860000       9.191690  2
|596>    2      0.172000       0.008301  2
|597>   p 2
|598>    1      0.860000      17.997720  2
|599>    2      0.172000      -0.032600  2
|600>   d 2
|601>    1      1.600000      -9.504310  2
|602>    2      0.320000      -0.151370  2
|603>   f 1
|604>    1      1.000000000    0.000000000 2
|605> end
|606> Ti>    4.00000000000    6.50804481848    4.44163394806   -1.06892138720
|607> NewECP
|608> N_core 0
|609>   lmax f
|610>   s 2
|611>    1      0.860000       9.191690  2
|612>    2      0.172000       0.008301  2
|613>   p 2
|614>    1      0.860000      17.997720  2
|615>    2      0.172000      -0.032600  2
|616>   d 2
|617>    1      1.600000      -9.504310  2
|618>    2      0.320000      -0.151370  2
|619>   f 1
|620>    1      1.000000000    0.000000000 2
|621> end
|622> Ti>    4.00000000000    6.50804466744   -4.44163557493   -1.06892606631
|623> NewECP
|624> N_core 0
|625>   lmax f
|626>   s 2
|627>    1      0.860000       9.191690  2
|628>    2      0.172000       0.008301  2
|629>   p 2
|630>    1      0.860000      17.997720  2
|631>    2      0.172000      -0.032600  2
|632>   d 2
|633>    1      1.600000      -9.504310  2
|634>    2      0.320000      -0.151370  2
|635>   f 1
|636>    1      1.000000000    0.000000000 2
|637> end
|638> Ti>    4.00000000000   -6.50803392749   -4.44163557493   -1.06892606631
|639> NewECP
|640> N_core 0
|641>   lmax f
|642>   s 2
|643>    1      0.860000       9.191690  2
|644>    2      0.172000       0.008301  2
|645>   p 2
|646>    1      0.860000      17.997720  2
|647>    2      0.172000      -0.032600  2
|648>   d 2
|649>    1      1.600000      -9.504310  2
|650>    2      0.320000      -0.151370  2
|651>   f 1
|652>    1      1.000000000    0.000000000 2
|653> end
|654> Ti>    4.00000000000    6.50798723387    2.96109301637   -4.41288206312
|655> NewECP
|656> N_core 0
|657>   lmax f
|658>   s 2
|659>    1      0.860000       9.191690  2
|660>    2      0.172000       0.008301  2
|661>   p 2
|662>    1      0.860000      17.997720  2
|663>    2      0.172000      -0.032600  2
|664>   d 2
|665>    1      1.600000      -9.504310  2
|666>    2      0.320000      -0.151370  2
|667>   f 1
|668>    1      1.000000000    0.000000000 2
|669> end
|670> Ti>    4.00000000000    6.50798723387   -2.96109405556   -4.41288206312
|671> NewECP
|672> N_core 0
|673>   lmax f
|674>   s 2
|675>    1      0.860000       9.191690  2
|676>    2      0.172000       0.008301  2
|677>   p 2
|678>    1      0.860000      17.997720  2
|679>    2      0.172000      -0.032600  2
|680>   d 2
|681>    1      1.600000      -9.504310  2
|682>    2      0.320000      -0.151370  2
|683>   f 1
|684>    1      1.000000000    0.000000000 2
|685> end
|686> Ti>    4.00000000000   -6.50809136106    2.96109301637   -4.41288206312
|687> NewECP
|688> N_core 0
|689>   lmax f
|690>   s 2
|691>    1      0.860000       9.191690  2
|692>    2      0.172000       0.008301  2
|693>   p 2
|694>    1      0.860000      17.997720  2
|695>    2      0.172000      -0.032600  2
|696>   d 2
|697>    1      1.600000      -9.504310  2
|698>    2      0.320000      -0.151370  2
|699>   f 1
|700>    1      1.000000000    0.000000000 2
|701> end
|702> Ti>    4.00000000000   -6.50809136106   -2.96109405556   -4.41288206312
|703> NewECP
|704> N_core 0
|705>   lmax f
|706>   s 2
|707>    1      0.860000       9.191690  2
|708>    2      0.172000       0.008301  2
|709>   p 2
|710>    1      0.860000      17.997720  2
|711>    2      0.172000      -0.032600  2
|712>   d 2
|713>    1      1.600000      -9.504310  2
|714>    2      0.320000      -0.151370  2
|715>   f 1
|716>    1      1.000000000    0.000000000 2
|717> end
|718> Ti>    4.00000000000    3.25401657974   -0.00000100232   -7.78540932970
|719> NewECP
|720> N_core 0
|721>   lmax f
|722>   s 2
|723>    1      0.860000       9.191690  2
|724>    2      0.172000       0.008301  2
|725>   p 2
|726>    1      0.860000      17.997720  2
|727>    2      0.172000      -0.032600  2
|728>   d 2
|729>    1      1.600000      -9.504310  2
|730>    2      0.320000      -0.151370  2
|731>   f 1
|732>    1      1.000000000    0.000000000 2
|733> end
|734> Ti>    4.00000000000   -3.25402271772   -0.00000100232   -7.78540932970
|735> NewECP
|736> N_core 0
|737>   lmax f
|738>   s 2
|739>    1      0.860000       9.191690  2
|740>    2      0.172000       0.008301  2
|741>   p 2
|742>    1      0.860000      17.997720  2
|743>    2      0.172000      -0.032600  2
|744>   d 2
|745>    1      1.600000      -9.504310  2
|746>    2      0.320000      -0.151370  2
|747>   f 1
|748>    1      1.000000000    0.000000000 2
|749> end
|750> Ti>    4.00000000000   -3.25402271772    2.96109253364   -7.78540932970
|751> NewECP
|752> N_core 0
|753>   lmax f
|754>   s 2
|755>    1      0.860000       9.191690  2
|756>    2      0.172000       0.008301  2
|757>   p 2
|758>    1      0.860000      17.997720  2
|759>    2      0.172000      -0.032600  2
|760>   d 2
|761>    1      1.600000      -9.504310  2
|762>    2      0.320000      -0.151370  2
|763>   f 1
|764>    1      1.000000000    0.000000000 2
|765> end
|766> Ti>    4.00000000000    3.25401657974    2.96109253364   -7.78540932970
|767> NewECP
|768> N_core 0
|769>   lmax f
|770>   s 2
|771>    1      0.860000       9.191690  2
|772>    2      0.172000       0.008301  2
|773>   p 2
|774>    1      0.860000      17.997720  2
|775>    2      0.172000      -0.032600  2
|776>   d 2
|777>    1      1.600000      -9.504310  2
|778>    2      0.320000      -0.151370  2
|779>   f 1
|780>    1      1.000000000    0.000000000 2
|781> end
|782> Ti>    4.00000000000    3.25401657974   -2.96109453828   -7.78540932970
|783> NewECP
|784> N_core 0
|785>   lmax f
|786>   s 2
|787>    1      0.860000       9.191690  2
|788>    2      0.172000       0.008301  2
|789>   p 2
|790>    1      0.860000      17.997720  2
|791>    2      0.172000      -0.032600  2
|792>   d 2
|793>    1      1.600000      -9.504310  2
|794>    2      0.320000      -0.151370  2
|795>   f 1
|796>    1      1.000000000    0.000000000 2
|797> end
|798> Ti>    4.00000000000   -3.25402271772   -2.96109453828   -7.78540932970
|799> NewECP
|800> N_core 0
|801>   lmax f
|802>   s 2
|803>    1      0.860000       9.191690  2
|804>    2      0.172000       0.008301  2
|805>   p 2
|806>    1      0.860000      17.997720  2
|807>    2      0.172000      -0.032600  2
|808>   d 2
|809>    1      1.600000      -9.504310  2
|810>    2      0.320000      -0.151370  2
|811>   f 1
|812>    1      1.000000000    0.000000000 2
|813> end
|814> Ti>    4.00000000000   -0.00000306899    4.44163930162   -7.78540932970
|815> NewECP
|816> N_core 0
|817>   lmax f
|818>   s 2
|819>    1      0.860000       9.191690  2
|820>    2      0.172000       0.008301  2
|821>   p 2
|822>    1      0.860000      17.997720  2
|823>    2      0.172000      -0.032600  2
|824>   d 2
|825>    1      1.600000      -9.504310  2
|826>    2      0.320000      -0.151370  2
|827>   f 1
|828>    1      1.000000000    0.000000000 2
|829> end
|830> Ti>    4.00000000000   -0.00000306899   -4.44164130627   -7.78540932970
|831> NewECP
|832> N_core 0
|833>   lmax f
|834>   s 2
|835>    1      0.860000       9.191690  2
|836>    2      0.172000       0.008301  2
|837>   p 2
|838>    1      0.860000      17.997720  2
|839>    2      0.172000      -0.032600  2
|840>   d 2
|841>    1      1.600000      -9.504310  2
|842>    2      0.320000      -0.151370  2
|843>   f 1
|844>    1      1.000000000    0.000000000 2
|845> end
|846> Ti>    4.00000000000   -3.25408714585    7.40273240730   -4.59991327640
|847> NewECP
|848> N_core 0
|849>   lmax f
|850>   s 2
|851>    1      0.860000       9.191690  2
|852>    2      0.172000       0.008301  2
|853>   p 2
|854>    1      0.860000      17.997720  2
|855>    2      0.172000      -0.032600  2
|856>   d 2
|857>    1      1.600000      -9.504310  2
|858>    2      0.320000      -0.151370  2
|859>   f 1
|860>    1      1.000000000    0.000000000 2
|861> end
|862> Ti>    4.00000000000    3.25395215162    7.40273240730   -4.59991327640
|863> NewECP
|864> N_core 0
|865>   lmax f
|866>   s 2
|867>    1      0.860000       9.191690  2
|868>    2      0.172000       0.008301  2
|869>   p 2
|870>    1      0.860000      17.997720  2
|871>    2      0.172000      -0.032600  2
|872>   d 2
|873>    1      1.600000      -9.504310  2
|874>    2      0.320000      -0.151370  2
|875>   f 1
|876>    1      1.000000000    0.000000000 2
|877> end
|878> Ti>    4.00000000000    3.25395195581   -7.40273429615   -4.59991284715
|879> NewECP
|880> N_core 0
|881>   lmax f
|882>   s 2
|883>    1      0.860000       9.191690  2
|884>    2      0.172000       0.008301  2
|885>   p 2
|886>    1      0.860000      17.997720  2
|887>    2      0.172000      -0.032600  2
|888>   d 2
|889>    1      1.600000      -9.504310  2
|890>    2      0.320000      -0.151370  2
|891>   f 1
|892>    1      1.000000000    0.000000000 2
|893> end
|894> Ti>    4.00000000000   -3.25408734165   -7.40273429615   -4.59991284715
|895> NewECP
|896> N_core 0
|897>   lmax f
|898>   s 2
|899>    1      0.860000       9.191690  2
|900>    2      0.172000       0.008301  2
|901>   p 2
|902>    1      0.860000      17.997720  2
|903>    2      0.172000      -0.032600  2
|904>   d 2
|905>    1      1.600000      -9.504310  2
|906>    2      0.320000      -0.151370  2
|907>   f 1
|908>    1      1.000000000    0.000000000 2
|909> end
|910> Ti>    4.00000000000   -3.25401668289    8.88328009748   -1.42716235830
|911> NewECP
|912> N_core 0
|913>   lmax f
|914>   s 2
|915>    1      0.860000       9.191690  2
|916>    2      0.172000       0.008301  2
|917>   p 2
|918>    1      0.860000      17.997720  2
|919>    2      0.172000      -0.032600  2
|920>   d 2
|921>    1      1.600000      -9.504310  2
|922>    2      0.320000      -0.151370  2
|923>   f 1
|924>    1      1.000000000    0.000000000 2
|925> end
|926> Ti>    4.00000000000    3.25402261457    8.88328009748   -1.42716235830
|927> NewECP
|928> N_core 0
|929>   lmax f
|930>   s 2
|931>    1      0.860000       9.191690  2
|932>    2      0.172000       0.008301  2
|933>   p 2
|934>    1      0.860000      17.997720  2
|935>    2      0.172000      -0.032600  2
|936>   d 2
|937>    1      1.600000      -9.504310  2
|938>    2      0.320000      -0.151370  2
|939>   f 1
|940>    1      1.000000000    0.000000000 2
|941> end
|942> Ti>    4.00000000000    3.25402261457   -8.88328111830   -1.42716235830
|943> NewECP
|944> N_core 0
|945>   lmax f
|946>   s 2
|947>    1      0.860000       9.191690  2
|948>    2      0.172000       0.008301  2
|949>   p 2
|950>    1      0.860000      17.997720  2
|951>    2      0.172000      -0.032600  2
|952>   d 2
|953>    1      1.600000      -9.504310  2
|954>    2      0.320000      -0.151370  2
|955>   f 1
|956>    1      1.000000000    0.000000000 2
|957> end
|958> Ti>    4.00000000000   -3.25401668289   -8.88328111830   -1.42716235830
|959> NewECP
|960> N_core 0
|961>   lmax f
|962>   s 2
|963>    1      0.860000       9.191690  2
|964>    2      0.172000       0.008301  2
|965>   p 2
|966>    1      0.860000      17.997720  2
|967>    2      0.172000      -0.032600  2
|968>   d 2
|969>    1      1.600000      -9.504310  2
|970>    2      0.320000      -0.151370  2
|971>   f 1
|972>    1      1.000000000    0.000000000 2
|973> end
|974> Ti>    4.00000000000    6.50798709372    5.92218636178   -4.41288396045
|975> NewECP
|976> N_core 0
|977>   lmax f
|978>   s 2
|979>    1      0.860000       9.191690  2
|980>    2      0.172000       0.008301  2
|981>   p 2
|982>    1      0.860000      17.997720  2
|983>    2      0.172000      -0.032600  2
|984>   d 2
|985>    1      1.600000      -9.504310  2
|986>    2      0.320000      -0.151370  2
|987>   f 1
|988>    1      1.000000000    0.000000000 2
|989> end
|990> Ti>    4.00000000000    6.50798709372   -5.92218778207   -4.41288396045
|991> NewECP
|992> N_core 0
|993>   lmax f
|994>   s 2
|995>    1      0.860000       9.191690  2
|996>    2      0.172000       0.008301  2
|997>   p 2
|998>    1      0.860000      17.997720  2
|999>    2      0.172000      -0.032600  2
|1000>   d 2
|1001>    1      1.600000      -9.504310  2
|1002>    2      0.320000      -0.151370  2
|1003>   f 1
|1004>    1      1.000000000    0.000000000 2
|1005> end
|1006> Ti>    4.00000000000   -6.50809150121    5.92218636178   -4.41288396045
|1007> NewECP
|1008> N_core 0
|1009>   lmax f
|1010>   s 2
|1011>    1      0.860000       9.191690  2
|1012>    2      0.172000       0.008301  2
|1013>   p 2
|1014>    1      0.860000      17.997720  2
|1015>    2      0.172000      -0.032600  2
|1016>   d 2
|1017>    1      1.600000      -9.504310  2
|1018>    2      0.320000      -0.151370  2
|1019>   f 1
|1020>    1      1.000000000    0.000000000 2
|1021> end
|1022> Ti>    4.00000000000   -6.50809150121   -5.92218778207   -4.41288396045
|1023> NewECP
|1024> N_core 0
|1025>   lmax f
|1026>   s 2
|1027>    1      0.860000       9.191690  2
|1028>    2      0.172000       0.008301  2
|1029>   p 2
|1030>    1      0.860000      17.997720  2
|1031>    2      0.172000      -0.032600  2
|1032>   d 2
|1033>    1      1.600000      -9.504310  2
|1034>    2      0.320000      -0.151370  2
|1035>   f 1
|1036>    1      1.000000000    0.000000000 2
|1037> end
|1038> Ti>    4.00000000000    9.76206248938   -0.00000112036   -1.42716202606
|1039> NewECP
|1040> N_core 0
|1041>   lmax f
|1042>   s 2
|1043>    1      0.860000       9.191690  2
|1044>    2      0.172000       0.008301  2
|1045>   p 2
|1046>    1      0.860000      17.997720  2
|1047>    2      0.172000      -0.032600  2
|1048>   d 2
|1049>    1      1.600000      -9.504310  2
|1050>    2      0.320000      -0.151370  2
|1051>   f 1
|1052>    1      1.000000000    0.000000000 2
|1053> end
|1054> Ti>    4.00000000000   -9.76205540302   -0.00000112036   -1.42716202606
|1055> NewECP
|1056> N_core 0
|1057>   lmax f
|1058>   s 2
|1059>    1      0.860000       9.191690  2
|1060>    2      0.172000       0.008301  2
|1061>   p 2
|1062>    1      0.860000      17.997720  2
|1063>    2      0.172000      -0.032600  2
|1064>   d 2
|1065>    1      1.600000      -9.504310  2
|1066>    2      0.320000      -0.151370  2
|1067>   f 1
|1068>    1      1.000000000    0.000000000 2
|1069> end
|1070> Ti>    4.00000000000   -6.50803392749    7.40273856892   -1.06892606631
|1071> NewECP
|1072> N_core 0
|1073>   lmax f
|1074>   s 2
|1075>    1      0.860000       9.191690  2
|1076>    2      0.172000       0.008301  2
|1077>   p 2
|1078>    1      0.860000      17.997720  2
|1079>    2      0.172000      -0.032600  2
|1080>   d 2
|1081>    1      1.600000      -9.504310  2
|1082>    2      0.320000      -0.151370  2
|1083>   f 1
|1084>    1      1.000000000    0.000000000 2
|1085> end
|1086> Ti>    4.00000000000    6.50804466744    7.40273856892   -1.06892606631
|1087> NewECP
|1088> N_core 0
|1089>   lmax f
|1090>   s 2
|1091>    1      0.860000       9.191690  2
|1092>    2      0.172000       0.008301  2
|1093>   p 2
|1094>    1      0.860000      17.997720  2
|1095>    2      0.172000      -0.032600  2
|1096>   d 2
|1097>    1      1.600000      -9.504310  2
|1098>    2      0.320000      -0.151370  2
|1099>   f 1
|1100>    1      1.000000000    0.000000000 2
|1101> end
|1102> Ti>    4.00000000000    6.50804481848   -7.40274019579   -1.06892138720
|1103> NewECP
|1104> N_core 0
|1105>   lmax f
|1106>   s 2
|1107>    1      0.860000       9.191690  2
|1108>    2      0.172000       0.008301  2
|1109>   p 2
|1110>    1      0.860000      17.997720  2
|1111>    2      0.172000      -0.032600  2
|1112>   d 2
|1113>    1      1.600000      -9.504310  2
|1114>    2      0.320000      -0.151370  2
|1115>   f 1
|1116>    1      1.000000000    0.000000000 2
|1117> end
|1118> Ti>    4.00000000000   -6.50803377645   -7.40274019579   -1.06892138720
|1119> NewECP
|1120> N_core 0
|1121>   lmax f
|1122>   s 2
|1123>    1      0.860000       9.191690  2
|1124>    2      0.172000       0.008301  2
|1125>   p 2
|1126>    1      0.860000      17.997720  2
|1127>    2      0.172000      -0.032600  2
|1128>   d 2
|1129>    1      1.600000      -9.504310  2
|1130>    2      0.320000      -0.151370  2
|1131>   f 1
|1132>    1      1.000000000    0.000000000 2
|1133> end
|1134> Ti>    4.00000000000   -0.00005206359    8.88328008829   -4.41288206312
|1135> NewECP
|1136> N_core 0
|1137>   lmax f
|1138>   s 2
|1139>    1      0.860000       9.191690  2
|1140>    2      0.172000       0.008301  2
|1141>   p 2
|1142>    1      0.860000      17.997720  2
|1143>    2      0.172000      -0.032600  2
|1144>   d 2
|1145>    1      1.600000      -9.504310  2
|1146>    2      0.320000      -0.151370  2
|1147>   f 1
|1148>    1      1.000000000    0.000000000 2
|1149> end
|1150> Ti>    4.00000000000   -0.00005206359   -8.88328112748   -4.41288206312
|1151> NewECP
|1152> N_core 0
|1153>   lmax f
|1154>   s 2
|1155>    1      0.860000       9.191690  2
|1156>    2      0.172000       0.008301  2
|1157>   p 2
|1158>    1      0.860000      17.997720  2
|1159>    2      0.172000      -0.032600  2
|1160>   d 2
|1161>    1      1.600000      -9.504310  2
|1162>    2      0.320000      -0.151370  2
|1163>   f 1
|1164>    1      1.000000000    0.000000000 2
|1165> end
|1166> Ti>    4.00000000000   -6.50804236645    1.48054576566   -7.78540932970
|1167> NewECP
|1168> N_core 0
|1169>   lmax f
|1170>   s 2
|1171>    1      0.860000       9.191690  2
|1172>    2      0.172000       0.008301  2
|1173>   p 2
|1174>    1      0.860000      17.997720  2
|1175>    2      0.172000      -0.032600  2
|1176>   d 2
|1177>    1      1.600000      -9.504310  2
|1178>    2      0.320000      -0.151370  2
|1179>   f 1
|1180>    1      1.000000000    0.000000000 2
|1181> end
|1182> Ti>    4.00000000000    6.50803622848    1.48054576566   -7.78540932970
|1183> NewECP
|1184> N_core 0
|1185>   lmax f
|1186>   s 2
|1187>    1      0.860000       9.191690  2
|1188>    2      0.172000       0.008301  2
|1189>   p 2
|1190>    1      0.860000      17.997720  2
|1191>    2      0.172000      -0.032600  2
|1192>   d 2
|1193>    1      1.600000      -9.504310  2
|1194>    2      0.320000      -0.151370  2
|1195>   f 1
|1196>    1      1.000000000    0.000000000 2
|1197> end
|1198> Ti>    4.00000000000    6.50803622848   -1.48054777030   -7.78540932970
|1199> NewECP
|1200> N_core 0
|1201>   lmax f
|1202>   s 2
|1203>    1      0.860000       9.191690  2
|1204>    2      0.172000       0.008301  2
|1205>   p 2
|1206>    1      0.860000      17.997720  2
|1207>    2      0.172000      -0.032600  2
|1208>   d 2
|1209>    1      1.600000      -9.504310  2
|1210>    2      0.320000      -0.151370  2
|1211>   f 1
|1212>    1      1.000000000    0.000000000 2
|1213> end
|1214> Ti>    4.00000000000   -6.50804236645   -1.48054777030   -7.78540932970
|1215> NewECP
|1216> N_core 0
|1217>   lmax f
|1218>   s 2
|1219>    1      0.860000       9.191690  2
|1220>    2      0.172000       0.008301  2
|1221>   p 2
|1222>    1      0.860000      17.997720  2
|1223>    2      0.172000      -0.032600  2
|1224>   d 2
|1225>    1      1.600000      -9.504310  2
|1226>    2      0.320000      -0.151370  2
|1227>   f 1
|1228>    1      1.000000000    0.000000000 2
|1229> end
|1230> Ti>    4.00000000000   -9.76205598036    2.96109302555   -1.42716235830
|1231> NewECP
|1232> N_core 0
|1233>   lmax f
|1234>   s 2
|1235>    1      0.860000       9.191690  2
|1236>    2      0.172000       0.008301  2
|1237>   p 2
|1238>    1      0.860000      17.997720  2
|1239>    2      0.172000      -0.032600  2
|1240>   d 2
|1241>    1      1.600000      -9.504310  2
|1242>    2      0.320000      -0.151370  2
|1243>   f 1
|1244>    1      1.000000000    0.000000000 2
|1245> end
|1246> Ti>    4.00000000000    9.76206191204    2.96109302555   -1.42716235830
|1247> NewECP
|1248> N_core 0
|1249>   lmax f
|1250>   s 2
|1251>    1      0.860000       9.191690  2
|1252>    2      0.172000       0.008301  2
|1253>   p 2
|1254>    1      0.860000      17.997720  2
|1255>    2      0.172000      -0.032600  2
|1256>   d 2
|1257>    1      1.600000      -9.504310  2
|1258>    2      0.320000      -0.151370  2
|1259>   f 1
|1260>    1      1.000000000    0.000000000 2
|1261> end
|1262> Ti>    4.00000000000    9.76206191204   -2.96109404638   -1.42716235830
|1263> NewECP
|1264> N_core 0
|1265>   lmax f
|1266>   s 2
|1267>    1      0.860000       9.191690  2
|1268>    2      0.172000       0.008301  2
|1269>   p 2
|1270>    1      0.860000      17.997720  2
|1271>    2      0.172000      -0.032600  2
|1272>   d 2
|1273>    1      1.600000      -9.504310  2
|1274>    2      0.320000      -0.151370  2
|1275>   f 1
|1276>    1      1.000000000    0.000000000 2
|1277> end
|1278> Ti>    4.00000000000   -9.76205598036   -2.96109404638   -1.42716235830
|1279> NewECP
|1280> N_core 0
|1281>   lmax f
|1282>   s 2
|1283>    1      0.860000       9.191690  2
|1284>    2      0.172000       0.008301  2
|1285>   p 2
|1286>    1      0.860000      17.997720  2
|1287>    2      0.172000      -0.032600  2
|1288>   d 2
|1289>    1      1.600000      -9.504310  2
|1290>    2      0.320000      -0.151370  2
|1291>   f 1
|1292>    1      1.000000000    0.000000000 2
|1293> end
|1294> Ti>    4.00000000000   -3.25402271772    5.92218606960   -7.78540932970
|1295> NewECP
|1296> N_core 0
|1297>   lmax f
|1298>   s 2
|1299>    1      0.860000       9.191690  2
|1300>    2      0.172000       0.008301  2
|1301>   p 2
|1302>    1      0.860000      17.997720  2
|1303>    2      0.172000      -0.032600  2
|1304>   d 2
|1305>    1      1.600000      -9.504310  2
|1306>    2      0.320000      -0.151370  2
|1307>   f 1
|1308>    1      1.000000000    0.000000000 2
|1309> end
|1310> Ti>    4.00000000000    3.25401657974    5.92218606960   -7.78540932970
|1311> NewECP
|1312> N_core 0
|1313>   lmax f
|1314>   s 2
|1315>    1      0.860000       9.191690  2
|1316>    2      0.172000       0.008301  2
|1317>   p 2
|1318>    1      0.860000      17.997720  2
|1319>    2      0.172000      -0.032600  2
|1320>   d 2
|1321>    1      1.600000      -9.504310  2
|1322>    2      0.320000      -0.151370  2
|1323>   f 1
|1324>    1      1.000000000    0.000000000 2
|1325> end
|1326> Ti>    4.00000000000    3.25401657974   -5.92218807425   -7.78540932970
|1327> NewECP
|1328> N_core 0
|1329>   lmax f
|1330>   s 2
|1331>    1      0.860000       9.191690  2
|1332>    2      0.172000       0.008301  2
|1333>   p 2
|1334>    1      0.860000      17.997720  2
|1335>    2      0.172000      -0.032600  2
|1336>   d 2
|1337>    1      1.600000      -9.504310  2
|1338>    2      0.320000      -0.151370  2
|1339>   f 1
|1340>    1      1.000000000    0.000000000 2
|1341> end
|1342> Ti>    4.00000000000   -3.25402271772   -5.92218807425   -7.78540932970
|1343> NewECP
|1344> N_core 0
|1345>   lmax f
|1346>   s 2
|1347>    1      0.860000       9.191690  2
|1348>    2      0.172000       0.008301  2
|1349>   p 2
|1350>    1      0.860000      17.997720  2
|1351>    2      0.172000      -0.032600  2
|1352>   d 2
|1353>    1      1.600000      -9.504310  2
|1354>    2      0.320000      -0.151370  2
|1355>   f 1
|1356>    1      1.000000000    0.000000000 2
|1357> end
|1358> Ti>    4.00000000000   -0.00000306899    7.40273283758   -7.78540932970
|1359> NewECP
|1360> N_core 0
|1361>   lmax f
|1362>   s 2
|1363>    1      0.860000       9.191690  2
|1364>    2      0.172000       0.008301  2
|1365>   p 2
|1366>    1      0.860000      17.997720  2
|1367>    2      0.172000      -0.032600  2
|1368>   d 2
|1369>    1      1.600000      -9.504310  2
|1370>    2      0.320000      -0.151370  2
|1371>   f 1
|1372>    1      1.000000000    0.000000000 2
|1373> end
|1374> Ti>    4.00000000000   -0.00000306899   -7.40273484223   -7.78540932970
|1375> NewECP
|1376> N_core 0
|1377>   lmax f
|1378>   s 2
|1379>    1      0.860000       9.191690  2
|1380>    2      0.172000       0.008301  2
|1381>   p 2
|1382>    1      0.860000      17.997720  2
|1383>    2      0.172000      -0.032600  2
|1384>   d 2
|1385>    1      1.600000      -9.504310  2
|1386>    2      0.320000      -0.151370  2
|1387>   f 1
|1388>    1      1.000000000    0.000000000 2
|1389> end
|1390> Ti>    4.00000000000    9.76199144908    1.48054533538   -4.59991327640
|1391> NewECP
|1392> N_core 0
|1393>   lmax f
|1394>   s 2
|1395>    1      0.860000       9.191690  2
|1396>    2      0.172000       0.008301  2
|1397>   p 2
|1398>    1      0.860000      17.997720  2
|1399>    2      0.172000      -0.032600  2
|1400>   d 2
|1401>    1      1.600000      -9.504310  2
|1402>    2      0.320000      -0.151370  2
|1403>   f 1
|1404>    1      1.000000000    0.000000000 2
|1405> end
|1406> Ti>    4.00000000000    9.76199125328   -1.48054722422   -4.59991284715
|1407> NewECP
|1408> N_core 0
|1409>   lmax f
|1410>   s 2
|1411>    1      0.860000       9.191690  2
|1412>    2      0.172000       0.008301  2
|1413>   p 2
|1414>    1      0.860000      17.997720  2
|1415>    2      0.172000      -0.032600  2
|1416>   d 2
|1417>    1      1.600000      -9.504310  2
|1418>    2      0.320000      -0.151370  2
|1419>   f 1
|1420>    1      1.000000000    0.000000000 2
|1421> end
|1422> Ti>    4.00000000000   -9.76212644332    1.48054533538   -4.59991327640
|1423> NewECP
|1424> N_core 0
|1425>   lmax f
|1426>   s 2
|1427>    1      0.860000       9.191690  2
|1428>    2      0.172000       0.008301  2
|1429>   p 2
|1430>    1      0.860000      17.997720  2
|1431>    2      0.172000      -0.032600  2
|1432>   d 2
|1433>    1      1.600000      -9.504310  2
|1434>    2      0.320000      -0.151370  2
|1435>   f 1
|1436>    1      1.000000000    0.000000000 2
|1437> end
|1438> Ti>    4.00000000000   -9.76212663912   -1.48054722422   -4.59991284715
|1439> NewECP
|1440> N_core 0
|1441>   lmax f
|1442>   s 2
|1443>    1      0.860000       9.191690  2
|1444>    2      0.172000       0.008301  2
|1445>   p 2
|1446>    1      0.860000      17.997720  2
|1447>    2      0.172000      -0.032600  2
|1448>   d 2
|1449>    1      1.600000      -9.504310  2
|1450>    2      0.320000      -0.151370  2
|1451>   f 1
|1452>    1      1.000000000    0.000000000 2
|1453> end
|1454> Ti>    4.00000000000   -9.76205540302    5.92218595157   -1.42716202606
|1455> NewECP
|1456> N_core 0
|1457>   lmax f
|1458>   s 2
|1459>    1      0.860000       9.191690  2
|1460>    2      0.172000       0.008301  2
|1461>   p 2
|1462>    1      0.860000      17.997720  2
|1463>    2      0.172000      -0.032600  2
|1464>   d 2
|1465>    1      1.600000      -9.504310  2
|1466>    2      0.320000      -0.151370  2
|1467>   f 1
|1468>    1      1.000000000    0.000000000 2
|1469> end
|1470> Ti>    4.00000000000    9.76206248938    5.92218595157   -1.42716202606
|1471> NewECP
|1472> N_core 0
|1473>   lmax f
|1474>   s 2
|1475>    1      0.860000       9.191690  2
|1476>    2      0.172000       0.008301  2
|1477>   p 2
|1478>    1      0.860000      17.997720  2
|1479>    2      0.172000      -0.032600  2
|1480>   d 2
|1481>    1      1.600000      -9.504310  2
|1482>    2      0.320000      -0.151370  2
|1483>   f 1
|1484>    1      1.000000000    0.000000000 2
|1485> end
|1486> Ti>    4.00000000000    9.76206248938   -5.92218819228   -1.42716202606
|1487> NewECP
|1488> N_core 0
|1489>   lmax f
|1490>   s 2
|1491>    1      0.860000       9.191690  2
|1492>    2      0.172000       0.008301  2
|1493>   p 2
|1494>    1      0.860000      17.997720  2
|1495>    2      0.172000      -0.032600  2
|1496>   d 2
|1497>    1      1.600000      -9.504310  2
|1498>    2      0.320000      -0.151370  2
|1499>   f 1
|1500>    1      1.000000000    0.000000000 2
|1501> end
|1502> Ti>    4.00000000000   -9.76205540302   -5.92218819228   -1.42716202606
|1503> NewECP
|1504> N_core 0
|1505>   lmax f
|1506>   s 2
|1507>    1      0.860000       9.191690  2
|1508>    2      0.172000       0.008301  2
|1509>   p 2
|1510>    1      0.860000      17.997720  2
|1511>    2      0.172000      -0.032600  2
|1512>   d 2
|1513>    1      1.600000      -9.504310  2
|1514>    2      0.320000      -0.151370  2
|1515>   f 1
|1516>    1      1.000000000    0.000000000 2
|1517> end
|1518> Ti>    4.00000000000    9.76199125328    4.44163984770   -4.59991284715
|1519> NewECP
|1520> N_core 0
|1521>   lmax f
|1522>   s 2
|1523>    1      0.860000       9.191690  2
|1524>    2      0.172000       0.008301  2
|1525>   p 2
|1526>    1      0.860000      17.997720  2
|1527>    2      0.172000      -0.032600  2
|1528>   d 2
|1529>    1      1.600000      -9.504310  2
|1530>    2      0.320000      -0.151370  2
|1531>   f 1
|1532>    1      1.000000000    0.000000000 2
|1533> end
|1534> Ti>    4.00000000000    9.76199144908   -4.44164173655   -4.59991327640
|1535> NewECP
|1536> N_core 0
|1537>   lmax f
|1538>   s 2
|1539>    1      0.860000       9.191690  2
|1540>    2      0.172000       0.008301  2
|1541>   p 2
|1542>    1      0.860000      17.997720  2
|1543>    2      0.172000      -0.032600  2
|1544>   d 2
|1545>    1      1.600000      -9.504310  2
|1546>    2      0.320000      -0.151370  2
|1547>   f 1
|1548>    1      1.000000000    0.000000000 2
|1549> end
|1550> Ti>    4.00000000000   -9.76212663912    4.44163984770   -4.59991284715
|1551> NewECP
|1552> N_core 0
|1553>   lmax f
|1554>   s 2
|1555>    1      0.860000       9.191690  2
|1556>    2      0.172000       0.008301  2
|1557>   p 2
|1558>    1      0.860000      17.997720  2
|1559>    2      0.172000      -0.032600  2
|1560>   d 2
|1561>    1      1.600000      -9.504310  2
|1562>    2      0.320000      -0.151370  2
|1563>   f 1
|1564>    1      1.000000000    0.000000000 2
|1565> end
|1566> Ti>    4.00000000000   -9.76212644332   -4.44164173655   -4.59991327640
|1567> NewECP
|1568> N_core 0
|1569>   lmax f
|1570>   s 2
|1571>    1      0.860000       9.191690  2
|1572>    2      0.172000       0.008301  2
|1573>   p 2
|1574>    1      0.860000      17.997720  2
|1575>    2      0.172000      -0.032600  2
|1576>   d 2
|1577>    1      1.600000      -9.504310  2
|1578>    2      0.320000      -0.151370  2
|1579>   f 1
|1580>    1      1.000000000    0.000000000 2
|1581> end
|1582>   end
|1583> endd                         ****END OF INPUT****
================================================================================

                       ****************************
                       * Single Point Calculation *
                       ****************************

---------------------------------
CARTESIAN COORDINATES (ANGSTROEM)
---------------------------------
  O      0.000000    0.000000    0.000000
  Ti     0.000005    1.480551   -1.068926
  Ti     0.000006   -1.480553   -1.068921
  O      0.000004   -0.000001   -2.548403
  O     -2.035259    1.480545   -1.111494
  O      2.035265    1.480545   -1.111492
  O      2.035265   -1.480547   -1.111493
  O     -2.035259   -1.480547   -1.111495
  O     -0.000000    2.961092   -0.000003
  O     -0.000000   -2.961096   -0.000003
  Ti     3.254023   -0.000001   -1.427162
  Ti    -3.254016   -0.000001   -1.427162
  O      0.000004    2.961092   -2.548404
  O      0.000004   -2.961095   -2.548404
  O      3.254026   -0.000001   -3.239905
  O     -3.254013   -0.000001   -3.239905
  O     -4.472774    1.480545   -1.111492
  O      4.472780    1.480545   -1.111494
  O      4.472780   -1.480547   -1.111495
  O     -4.472775   -1.480547   -1.111493
  Ti>   -0.000052   -0.000001   -4.412884
  Ti>    0.000006    4.441634   -1.068921
  Ti>    0.000005   -4.441636   -1.068926
  Ti>   -3.254017    2.961093   -1.427162
  Ti>    3.254023    2.961093   -1.427162
  Ti>    3.254023   -2.961094   -1.427162
  Ti>   -3.254017   -2.961094   -1.427162
  Ti>   -0.000052    2.961093   -4.412882
  Ti>   -0.000052   -2.961094   -4.412882
  Ti>    3.253952    1.480545   -4.599913
  Ti>    3.253952   -1.480547   -4.599913
  Ti>   -3.254087    1.480545   -4.599913
  Ti>   -3.254087   -1.480547   -4.599913
  Ti>   -6.508034    1.480551   -1.068926
  Ti>    6.508045    1.480551   -1.068926
  Ti>    6.508045   -1.480553   -1.068921
  Ti>   -6.508034   -1.480553   -1.068921
  Ti>   -3.254016    5.922186   -1.427162
  Ti>    3.254023    5.922186   -1.427162
  Ti>    3.254023   -5.922188   -1.427162
  Ti>   -3.254016   -5.922188   -1.427162
  Ti>    3.253952    4.441640   -4.599913
  Ti>    3.253952   -4.441642   -4.599913
  Ti>   -3.254087    4.441640   -4.599913
  Ti>   -3.254087   -4.441642   -4.599913
  Ti>   -0.000052    5.922186   -4.412884
  Ti>   -0.000052   -5.922188   -4.412884
  Ti>    0.000005    7.402739   -1.068926
  Ti>    0.000006   -7.402740   -1.068921
  Ti>    6.507987   -0.000001   -4.412884
  Ti>   -6.508092   -0.000001   -4.412884
  Ti>   -0.000003    1.480546   -7.785409
  Ti>   -0.000003   -1.480548   -7.785409
  Ti>   -6.508034    4.441634   -1.068921
  Ti>    6.508045    4.441634   -1.068921
  Ti>    6.508045   -4.441636   -1.068926
  Ti>   -6.508034   -4.441636   -1.068926
  Ti>    6.507987    2.961093   -4.412882
  Ti>    6.507987   -2.961094   -4.412882
  Ti>   -6.508091    2.961093   -4.412882
  Ti>   -6.508091   -2.961094   -4.412882
  Ti>    3.254017   -0.000001   -7.785409
  Ti>   -3.254023   -0.000001   -7.785409
  Ti>   -3.254023    2.961093   -7.785409
  Ti>    3.254017    2.961093   -7.785409
  Ti>    3.254017   -2.961095   -7.785409
  Ti>   -3.254023   -2.961095   -7.785409
  Ti>   -0.000003    4.441639   -7.785409
  Ti>   -0.000003   -4.441641   -7.785409
  Ti>   -3.254087    7.402732   -4.599913
  Ti>    3.253952    7.402732   -4.599913
  Ti>    3.253952   -7.402734   -4.599913
  Ti>   -3.254087   -7.402734   -4.599913
  Ti>   -3.254017    8.883280   -1.427162
  Ti>    3.254023    8.883280   -1.427162
  Ti>    3.254023   -8.883281   -1.427162
  Ti>   -3.254017   -8.883281   -1.427162
  Ti>    6.507987    5.922186   -4.412884
  Ti>    6.507987   -5.922188   -4.412884
  Ti>   -6.508092    5.922186   -4.412884
  Ti>   -6.508092   -5.922188   -4.412884
  Ti>    9.762062   -0.000001   -1.427162
  Ti>   -9.762055   -0.000001   -1.427162
  Ti>   -6.508034    7.402739   -1.068926
  Ti>    6.508045    7.402739   -1.068926
  Ti>    6.508045   -7.402740   -1.068921
  Ti>   -6.508034   -7.402740   -1.068921
  Ti>   -0.000052    8.883280   -4.412882
  Ti>   -0.000052   -8.883281   -4.412882
  Ti>   -6.508042    1.480546   -7.785409
  Ti>    6.508036    1.480546   -7.785409
  Ti>    6.508036   -1.480548   -7.785409
  Ti>   -6.508042   -1.480548   -7.785409
  Ti>   -9.762056    2.961093   -1.427162
  Ti>    9.762062    2.961093   -1.427162
  Ti>    9.762062   -2.961094   -1.427162
  Ti>   -9.762056   -2.961094   -1.427162
  Ti>   -3.254023    5.922186   -7.785409
  Ti>    3.254017    5.922186   -7.785409
  Ti>    3.254017   -5.922188   -7.785409
  Ti>   -3.254023   -5.922188   -7.785409
  Ti>   -0.000003    7.402733   -7.785409
  Ti>   -0.000003   -7.402735   -7.785409
  Ti>    9.761991    1.480545   -4.599913
  Ti>    9.761991   -1.480547   -4.599913
  Ti>   -9.762126    1.480545   -4.599913
  Ti>   -9.762127   -1.480547   -4.599913
  Ti>   -9.762055    5.922186   -1.427162
  Ti>    9.762062    5.922186   -1.427162
  Ti>    9.762062   -5.922188   -1.427162
  Ti>   -9.762055   -5.922188   -1.427162
  Ti>    9.761991    4.441640   -4.599913
  Ti>    9.761991   -4.441642   -4.599913
  Ti>   -9.762127    4.441640   -4.599913
  Ti>   -9.762126   -4.441642   -4.599913

----------------------------
CARTESIAN COORDINATES (A.U.)
----------------------------
  NO LB      ZA    FRAG     MASS         X           Y           Z
   0 O     0.0000    0     0.000    0.000000    0.000000    0.000000
   1 Ti   22.0000    0    47.900    0.000010    2.797837   -2.019978
   2 Ti   22.0000    0    47.900    0.000010   -2.797840   -2.019969
   3 O     8.0000    0    15.999    0.000008   -0.000002   -4.815784
   4 O     8.0000    0    15.999   -3.846082    2.797825   -2.100419
   5 O     8.0000    0    15.999    3.846094    2.797825   -2.100415
   6 O     8.0000    0    15.999    3.846093   -2.797828   -2.100417
   7 O     8.0000    0    15.999   -3.846082   -2.797829   -2.100421
   8 O     8.0000    0    15.999   -0.000001    5.595652   -0.000005
   9 O     8.0000    0    15.999   -0.000001   -5.595660   -0.000005
  10 Ti   22.0000    0    47.900    6.149213   -0.000002   -2.696945
  11 Ti   22.0000    0    47.900   -6.149199   -0.000002   -2.696945
  12 O     8.0000    0    15.999    0.000009    5.595653   -4.815786
  13 O     8.0000    0    15.999    0.000009   -5.595659   -4.815786
  14 O     8.0000    0    15.999    6.149218   -0.000001   -6.122533
  15 O     8.0000    0    15.999   -6.149194   -0.000001   -6.122533
  16 O     8.0000    0    15.999   -8.452318    2.797825   -2.100415
  17 O     8.0000    0    15.999    8.452330    2.797825   -2.100419
  18 O     8.0000    0    15.999    8.452330   -2.797829   -2.100421
  19 O     8.0000    0    15.999   -8.452319   -2.797828   -2.100417
  20 Ti>   4.0000    0     0.000   -0.000099   -0.000001   -8.339142
  21 Ti>   4.0000    0     0.000    0.000010    8.393472   -2.019969
  22 Ti>   4.0000    0     0.000    0.000010   -8.393475   -2.019978
  23 Ti>   4.0000    0     0.000   -6.149200    5.595655   -2.696946
  24 Ti>   4.0000    0     0.000    6.149212    5.595655   -2.696946
  25 Ti>   4.0000    0     0.000    6.149212   -5.595657   -2.696946
  26 Ti>   4.0000    0     0.000   -6.149200   -5.595657   -2.696946
  27 Ti>   4.0000    0     0.000   -0.000098    5.595655   -8.339139
  28 Ti>   4.0000    0     0.000   -0.000098   -5.595657   -8.339139
  29 Ti>   4.0000    0     0.000    6.149078    2.797825   -8.692576
  30 Ti>   4.0000    0     0.000    6.149078   -2.797829   -8.692576
  31 Ti>   4.0000    0     0.000   -6.149334    2.797825   -8.692576
  32 Ti>   4.0000    0     0.000   -6.149334   -2.797829   -8.692576
  33 Ti>   4.0000    0     0.000  -12.298402    2.797837   -2.019978
  34 Ti>   4.0000    0     0.000   12.298422    2.797837   -2.019978
  35 Ti>   4.0000    0     0.000   12.298422   -2.797840   -2.019969
  36 Ti>   4.0000    0     0.000  -12.298402   -2.797840   -2.019969
  37 Ti>   4.0000    0     0.000   -6.149199   11.191310   -2.696945
  38 Ti>   4.0000    0     0.000    6.149213   11.191310   -2.696945
  39 Ti>   4.0000    0     0.000    6.149213  -11.191314   -2.696945
  40 Ti>   4.0000    0     0.000   -6.149199  -11.191314   -2.696945
  41 Ti>   4.0000    0     0.000    6.149078    8.393483   -8.692576
  42 Ti>   4.0000    0     0.000    6.149078   -8.393486   -8.692576
  43 Ti>   4.0000    0     0.000   -6.149334    8.393483   -8.692576
  44 Ti>   4.0000    0     0.000   -6.149334   -8.393486   -8.692576
  45 Ti>   4.0000    0     0.000   -0.000099   11.191310   -8.339142
  46 Ti>   4.0000    0     0.000   -0.000099  -11.191313   -8.339142
  47 Ti>   4.0000    0     0.000    0.000010   13.989149   -2.019978
  48 Ti>   4.0000    0     0.000    0.000010  -13.989152   -2.019969
  49 Ti>   4.0000    0     0.000   12.298313   -0.000001   -8.339142
  50 Ti>   4.0000    0     0.000  -12.298511   -0.000001   -8.339142
  51 Ti>   4.0000    0     0.000   -0.000006    2.797826  -14.712291
  52 Ti>   4.0000    0     0.000   -0.000006   -2.797830  -14.712291
  53 Ti>   4.0000    0     0.000  -12.298402    8.393472   -2.019969
  54 Ti>   4.0000    0     0.000   12.298422    8.393472   -2.019969
  55 Ti>   4.0000    0     0.000   12.298422   -8.393475   -2.019978
  56 Ti>   4.0000    0     0.000  -12.298402   -8.393475   -2.019978
  57 Ti>   4.0000    0     0.000   12.298314    5.595655   -8.339139
  58 Ti>   4.0000    0     0.000   12.298314   -5.595657   -8.339139
  59 Ti>   4.0000    0     0.000  -12.298510    5.595655   -8.339139
  60 Ti>   4.0000    0     0.000  -12.298510   -5.595657   -8.339139
  61 Ti>   4.0000    0     0.000    6.149200   -0.000002  -14.712291
  62 Ti>   4.0000    0     0.000   -6.149212   -0.000002  -14.712291
  63 Ti>   4.0000    0     0.000   -6.149212    5.595654  -14.712291
  64 Ti>   4.0000    0     0.000    6.149200    5.595654  -14.712291
  65 Ti>   4.0000    0     0.000    6.149200   -5.595658  -14.712291
  66 Ti>   4.0000    0     0.000   -6.149212   -5.595658  -14.712291
  67 Ti>   4.0000    0     0.000   -0.000006    8.393482  -14.712291
  68 Ti>   4.0000    0     0.000   -0.000006   -8.393486  -14.712291
  69 Ti>   4.0000    0     0.000   -6.149334   13.989137   -8.692576
  70 Ti>   4.0000    0     0.000    6.149078   13.989137   -8.692576
  71 Ti>   4.0000    0     0.000    6.149078  -13.989140   -8.692576
  72 Ti>   4.0000    0     0.000   -6.149334  -13.989140   -8.692576
  73 Ti>   4.0000    0     0.000   -6.149200   16.786967   -2.696946
  74 Ti>   4.0000    0     0.000    6.149212   16.786967   -2.696946
  75 Ti>   4.0000    0     0.000    6.149212  -16.786968   -2.696946
  76 Ti>   4.0000    0     0.000   -6.149200  -16.786968   -2.696946
  77 Ti>   4.0000    0     0.000   12.298313   11.191310   -8.339142
  78 Ti>   4.0000    0     0.000   12.298313  -11.191313   -8.339142
  79 Ti>   4.0000    0     0.000  -12.298511   11.191310   -8.339142
  80 Ti>   4.0000    0     0.000  -12.298511  -11.191313   -8.339142
  81 Ti>   4.0000    0     0.000   18.447625   -0.000002   -2.696945
  82 Ti>   4.0000    0     0.000  -18.447611   -0.000002   -2.696945
  83 Ti>   4.0000    0     0.000  -12.298402   13.989149   -2.019978
  84 Ti>   4.0000    0     0.000   12.298422   13.989149   -2.019978
  85 Ti>   4.0000    0     0.000   12.298422  -13.989152   -2.019969
  86 Ti>   4.0000    0     0.000  -12.298402  -13.989152   -2.019969
  87 Ti>   4.0000    0     0.000   -0.000098   16.786967   -8.339139
  88 Ti>   4.0000    0     0.000   -0.000098  -16.786969   -8.339139
  89 Ti>   4.0000    0     0.000  -12.298418    2.797826  -14.712291
  90 Ti>   4.0000    0     0.000   12.298406    2.797826  -14.712291
  91 Ti>   4.0000    0     0.000   12.298406   -2.797830  -14.712291
  92 Ti>   4.0000    0     0.000  -12.298418   -2.797830  -14.712291
  93 Ti>   4.0000    0     0.000  -18.447612    5.595655   -2.696946
  94 Ti>   4.0000    0     0.000   18.447624    5.595655   -2.696946
  95 Ti>   4.0000    0     0.000   18.447624   -5.595657   -2.696946
  96 Ti>   4.0000    0     0.000  -18.447612   -5.595657   -2.696946
  97 Ti>   4.0000    0     0.000   -6.149212   11.191310  -14.712291
  98 Ti>   4.0000    0     0.000    6.149200   11.191310  -14.712291
  99 Ti>   4.0000    0     0.000    6.149200  -11.191314  -14.712291
 100 Ti>   4.0000    0     0.000   -6.149212  -11.191314  -14.712291
 101 Ti>   4.0000    0     0.000   -0.000006   13.989138  -14.712291
 102 Ti>   4.0000    0     0.000   -0.000006  -13.989141  -14.712291
 103 Ti>   4.0000    0     0.000   18.447490    2.797825   -8.692576
 104 Ti>   4.0000    0     0.000   18.447490   -2.797829   -8.692576
 105 Ti>   4.0000    0     0.000  -18.447745    2.797825   -8.692576
 106 Ti>   4.0000    0     0.000  -18.447746   -2.797829   -8.692576
 107 Ti>   4.0000    0     0.000  -18.447611   11.191310   -2.696945
 108 Ti>   4.0000    0     0.000   18.447625   11.191310   -2.696945
 109 Ti>   4.0000    0     0.000   18.447625  -11.191314   -2.696945
 110 Ti>   4.0000    0     0.000  -18.447611  -11.191314   -2.696945
 111 Ti>   4.0000    0     0.000   18.447490    8.393483   -8.692576
 112 Ti>   4.0000    0     0.000   18.447490   -8.393486   -8.692576
 113 Ti>   4.0000    0     0.000  -18.447746    8.393483   -8.692576
 114 Ti>   4.0000    0     0.000  -18.447745   -8.393486   -8.692576
> coreless ECP center with (optional) point charge

--------------------------------
INTERNAL COORDINATES (ANGSTROEM)
--------------------------------
 O      0   0   0     0.000000000000     0.00000000     0.00000000
 Ti     1   0   0     1.826098483252     0.00000000     0.00000000
 Ti     1   2   0     1.826097063306   108.34321415     0.00000000
 O      2   1   3     2.093057118869    80.80764629     0.00000000
 O      2   1   3     2.035709617889    90.70101716    89.02863937
 O      2   1   3     2.035705038603    90.70132129   270.97178739
 O      3   1   2     2.035704375863    90.70142476    89.02807847
 O      3   1   2     2.035709824520    90.70111581   270.97149260
 O      2   1   3     1.826087614204   108.34292419   179.99999251
 O      3   1   2     1.826086776018   108.34323519   180.00001748
 Ti     7   3   1     1.943459621643   129.07739454   313.09097521
 Ti     8   3   1     1.943458546842   129.07736791    46.90890739
 O      2   1   3     2.093049508223   170.84902752     0.00000000
 O      3   1   2     2.093053849171   170.84881627     0.00000000
 O     11   7   3     1.812742988802    99.34782772   276.10590783
 O     12   8   3     1.812742988802    99.34765676    83.89407809
 O     12   8   3     1.943459832055   161.30450066   263.89411762
 O     11   7   3     1.943458846702   161.30450541    96.10583576
 O     11   7   3     1.943458546848    77.67407929   178.49038525
 O     12   8   3     1.943459621649    77.67407929   181.50981115
 Ti>    4   2   1     1.864480942980   134.97916629   179.99739930
 Ti>    9   2   1     1.826086776009   108.34294524   179.99998252
 Ti>   10   3   1     1.826087614204   108.34294524   180.00000759
 Ti>    5   2   1     1.943460434294   129.07697438   155.26413262
 Ti>   18  11   7     1.943460434301    99.24805639   258.83818749
 Ti>   19  11   7     1.943459506357    99.24804344    18.77755699
 Ti>    8   3   1     1.943459506351   129.07704137   204.73588289
 Ti>   13   2   9     1.864477681998   134.97947132   180.00261235
 Ti>   14   3  10     1.864477681998   134.97947069   179.99738765
 Ti>   15  11   7     2.010382762613   132.57015100   140.53647680
 Ti>   15  11   7     2.010382925550   132.57009955   320.54236781
 Ti>   16  12   8     2.010382762613   132.57015100   219.45762484
 Ti>   16  12   8     2.010382925550   132.57009955    39.46351586
 Ti>   17  12   8     2.035705038593   129.07733641   263.89383266
 Ti>   18  11   7     2.035709617889   129.07733895    96.10621133
 Ti>   19  11   7     2.035709824520   129.07736791   181.50981115
 Ti>   20  12   8     2.035704375853   129.07739454   178.49038525
 Ti>   24   5   2     2.961092926020   139.62402324   342.73205762
 Ti>   25  18  11     2.961092926020   139.62402324   179.99998944
 Ti>   26  19  11     2.961094145900   139.62400890   180.00001053
 Ti>   27   8   3     2.961094145900   139.62400890    17.26767399
 Ti>   30  15  11     2.961094512320   137.42985590     0.00000000
 Ti>   31  15  11     2.961094512330   137.42989339     0.00000000
 Ti>   32  16  12     2.961094512320   137.42985590     0.00000000
 Ti>   33  16  12     2.961094512330   137.42989339     0.00000000
 Ti>   28  13   2     2.961093345411    90.00006819   179.99829400
 Ti>   29  14   3     2.961093726511    90.00000523   180.00170016
 Ti>   22   9   2     2.961104620864   144.17164420   179.99999001
 Ti>   23  10   3     2.961104620864   144.17130104   179.99998997
 Ti>   15  11   7     3.458922112887   109.82316985   230.53942533
 Ti>   16  12   8     3.459032348227   109.82233196   129.46055976
 Ti>   21   4   2     3.683197691633   156.29842650     0.00000000
 Ti>   52  21   4     2.961093535960    66.29841404   179.99359428
 Ti>   34  17  12     2.961082451064    90.00017397   191.08674828
 Ti>   35  18  11     2.961082451064    90.00018251   168.91338009
 Ti>   36  19  11     2.961082451074    90.00016116   191.08662526
 Ti>   37  20  12     2.961082451074    90.00017336   168.91325184
 Ti>   50  15  11     2.961093726511    89.99998888   270.00001877
 Ti>   50  15  11     2.961093345421    89.99999132    89.99994785
 Ti>   51  16  12     2.961093726511    89.99998378    89.99998307
 Ti>   51  16  12     2.961093345421    89.99998622   270.00005031
 Ti>   30  15  11     3.512748577370   107.64219900   180.00028382
 Ti>   32  16  12     3.512748577370   107.64219900   180.00028381
 Ti>   63  32  16     2.961093535960    65.07206331   180.00303221
 Ti>   62  30  15     2.961093535960    65.07206331   180.00303221
 Ti>   62  30  15     2.961093535960   114.92793669     0.00000000
[...]
sum of pair energies prescreened and skipped MP2 pairs...      -0.005426359708 Eh
sum of pair energies of crude MP2 skipped pairs only  ...      -0.005426359708 Eh
sum of MP2 pair energies for pairs that were not kept ...      -0.021386504592 Eh
sum of PNO error estimates for the kept pairs         ...      -0.023299179117 Eh
                                                          --------------------
sum of all corrections                                         -0.044685683709
Initial total correlation energy                               -5.555689999342
Thresholds for map construction and integral transformation for fine MP2 and CCSD(T) calculation:
   TCutMKN   ...     1.0e-03
   TCutDO    ...     1.0e-02
   TCutPairs ...     1.0e-04
   TCutCMO   ...     1.0e-03
   TCutCPAO  ...     1.0e-03

Thresholds for map construction and integral transformation for strong Triples:
   TCutMKN   ...     1.0e-02
   TCutDO    ...     2.0e-02
   TCutCMO   ...     1.0e-03
   TCutCPAO  ...     1.0e-03

Thresholds for map construction and integral transformation for weak Triples:
   TCutMKN   ...     1.0e-01
   TCutDO    ...     4.0e-02
   TCutCMO   ...     1.0e-03
   TCutCPAO  ...     1.0e-03

--------------------------------
LOCAL RI TRANSFORMATION (IAVPAO)
--------------------------------

Orbital window:      35 to 111
Number of PAOs:    1144
Basis functions:   1144 (336 shells)
Aux. functions:    5508 (1252 shells)
Use SHARK:           on

Processing maps (0.1 sec)
Average map sizes:
   Aux shells -> MOs              74.2
   Aux shells -> PAOs           1144.0
   MOs        -> AO shells       334.4
   PAOs       -> AO shells       336.0

Calculating integrals (31.7 sec, 3580.544 MB)
Sorting integrals (5.8 sec, 3580.482 MB)
Total time for the integral transformation: 38.0 sec
--------------------------------
INITIAL GUESS AND PNO GENERATION
--------------------------------

PNO truncation parameters                   .... 
    PAOOverlapThresh   =        1.000e-08

    TCutPairs          =        1.000e-04
    TCutPNO            =        3.330e-07
    TCutPNOSingles     =        9.990e-09
    TCutMP2Pairs       =        1.000e-05
    TCutMKN            =        1.000e-03
    TCutDO             =        1.000e-02

Pair selection                          .... not used
Type of local MP2 treatment                 .... semi-local MP2
Strategy for PNO selection                  .... occupation number selection
Pair density normalization                  .... MP2 norm
Spin component scaling                      .... not used

   .... Finished loop over pairs

 PNO Occupation Number Statistics: 
  | Av. % of trace(Dij) retained        ...  96.461364675903
  | sigma^2 in % of trace(Dij) retained ...   2.44e+01
  | Av. % of trace(Di) retained         ...  99.998678835133
  | sigma^2 in % of trace(Di) retained  ...   8.65e-08
 Distributions of % trace(Dij) recovered:
  |       >= 99.9  ...   191 ( 12.1 % of all pairs)
  |   [60.0, 70.0) ...     8 (  0.5 % of all pairs)
  |   [70.0, 80.0) ...    24 (  1.5 % of all pairs)
  |   [80.0, 90.0) ...   109 (  6.9 % of all pairs)
  |   [90.0, 99.0) ...  1011 ( 63.9 % of all pairs)
  |   [99.0, 99.9) ...   240 ( 15.2 % of all pairs)
 Distributions of % trace(Di) recovered :
  |       >= 99.9  ...    77 (100.0 % of all I-pairs )

Making pair pair interaction lists          ... done

                       ===========================
                       1111 OF 1583 PAIRS ARE KEPT
                       ===========================

Total time spent in the initial guess                 ...   322.834 sec
SL-MP2 correlation energy (all non-screened pairs)    ...      -5.551020730523 Eh

Initial PNO correlation energy                        ...      -5.511710778246 Eh
sum of pair energies estimated for screened out pairs ...      -0.005426359708 Eh
sum of MP2 pair energies for pairs that were not kept ...      -0.015962865920 Eh
sum of PNO error estimates for the kept pairs         ...      -0.023347086358 Eh
                                                          --------------------
sum of all corrections                                         -0.044736311985
Initial total correlation energy                               -5.556447090231
Thresholds for map construction and integral transformation for fine MP2 and CCSD(T) calculation:
   TCutMKN   ...     1.0e-03
   TCutDO    ...     1.0e-02
   TCutPairs ...     1.0e-04
   TCutCMO   ...     1.0e-03
   TCutCPAO  ...     1.0e-03

Time for aux screen maps:            0.027
Time for maps after fine MP2:            0.248
-----------------------------
LOCAL RI TRANSFORMATION (IJV)
-----------------------------

Orbital window:      35 to 111
Basis functions:   1144 (336 shells)
Aux. functions:    5508 (1252 shells)
Use SHARK:           on

Processing maps (0.0 sec)
Average map sizes:
   Aux shells -> MOs(i)           71.8
   Aux shells -> MOs(j)           77.0
   MOs        -> AO shells       334.4

Calculating integrals (29.4 sec, 234.173 MB)
Sorting integrals (0.8 sec, 234.111 MB)
Total time for the integral transformation: 30.3 sec
--------------------------------
LOCAL RI TRANSFORMATION (VABPAO)
--------------------------------

Number of PAOs:    1144
Basis functions:   1144 (336 shells)
Aux. functions:    5508 (1252 shells)
Use SHARK:           on

Processing maps (0.0 sec)
Average map sizes:
   Aux shells -> PAOs           1144.0
   PAOs       -> AO shells       336.0

Calculating integrals (62.6 sec, 54996.690 MB)
Finished


-------------------------------------
Pair Pair Term precalculation with     
RI-(ij|mn) and (im|jn) transformation  
ON THE FLY                             
-------------------------------------

   IBatch   1 (of   2)              ... done ( 3322.476 sec)
   IBatch   2 (of   2)              ... done ( 1196.629 sec)
Total EXT                           ...        4519.105 sec

---------------------
RI-PNO TRANSFORMATION
---------------------

Total Number of PNOs                   ... 28572
Average number of PNOs per pair        ...    25
Maximal number of PNOs per pair        ...   103
   #pairs with  1 -  5 PNOs   :    0
   #pairs with  6 - 10 PNOs   :   22
   #pairs with 11 - 15 PNOs   :  253
   #pairs with 16 - 20 PNOs   :  217
   #pairs with 21 - 25 PNOs   :  200
   #pairs with 26 - 30 PNOs   :   94
   #pairs with 31 - 35 PNOs   :   74
   #pairs with 36 - 40 PNOs   :   48
   #pairs with 41 - 45 PNOs   :   56
   #pairs with 46 - 50 PNOs   :   88
   #pairs with 51 - 55 PNOs   :   58
   #pairs with > 96 PNOs      :    1

Generation of (ij|ab)[P] integrals            ... on
Generation of (ia|bc)[P],(ja|bc)[P] integrals ... on
Storage of 3 and 4 external integrals         ... on
Generation of ALL (ka|bc)[P] integrals        ... on
Keep RI integrals in memory                   ... off

Ibatch:  1 (of  1)
Starting 2-4 index PNO integral generation ... done

Timings:
Total PNO integral transformation time     ...       2889.519 sec
Size of the 3-external file                ...       276 MB
Size of the 4-external file                ...      1551 MB
Size of the IKJL file                      ...         0 MB
Size of the all 3-external file            ...     10645 MB
Size of the 1-external file                ...        50 MB

Making pair/pair overlap matrices          ... done (  409.594 sec)
Redoing the guess amplitudes               ... done (    0.034 sec)

-------------------------
FINAL STARTUP INFORMATION
-------------------------

E(0)                                       ...  -9075.894418513
E(SL-MP2)                                  ...     -5.551020731
E(SL-MP2) including corrections            ...     -5.556447090
Initial E(tot)                             ...  -9081.450865603
<T|T>                                      ...      1.247092974
Number of pairs included                   ... 1111
Total number of pairs                      ... 3003

------------------------------------------------
                  RHF COUPLED CLUSTER ITERATIONS
------------------------------------------------

Number of PNO amplitudes to be optimized   ...       918214
Number of non-PNO amplitudes               ...   1183241664
Untruncated number of regular amplitudes   ...   3198267072

Iter       E(tot)           E(Corr)          Delta-E          Residual     Time
  0  -9081.451242541     -5.512087716      0.038933014      0.026687089   47.39
                           *** Turning on DIIS ***
  1  -9081.483818231     -5.544663407     -0.032575690      0.034648414   46.95
  2  -9081.621681425     -5.682526601     -0.137863194      0.008398564   46.98
  3  -9081.645905803     -5.706750978     -0.024224378      0.009398739   47.02
  4  -9081.658263024     -5.719108199     -0.012357221      0.004886535   47.06
  5  -9081.663748834     -5.724594009     -0.005485810      0.001933590   47.15
  6  -9081.664717026     -5.725562201     -0.000968192      0.001177814   47.20
  7  -9081.665106724     -5.725951900     -0.000389698      0.000424564   47.17
  8  -9081.665226754     -5.726071929     -0.000120029      0.000267091   47.16
  9  -9081.665223829     -5.726069004      0.000002925      0.000170299   47.17
 10  -9081.665231687     -5.726076862     -0.000007858      0.000113096   47.16
 11  -9081.665221498     -5.726066673      0.000010188      0.000078628   47.13
 12  -9081.665227016     -5.726072191     -0.000005518      0.000049973   47.12
 13  -9081.665221410     -5.726066586      0.000005606      0.000028341   46.96
 14  -9081.665218213     -5.726063389      0.000003197      0.000014907   46.95
 15  -9081.665214638     -5.726059813      0.000003575      0.000006576   46.96
 16  -9081.665212215     -5.726057390      0.000002424      0.000002409   46.93
 17  -9081.665211213     -5.726056389      0.000001001      0.000001518   46.94
 18  -9081.665211458     -5.726056634     -0.000000245      0.000001017   46.93
 19  -9081.665211449     -5.726056625      0.000000009      0.000000477   46.94
               --- The Coupled-Cluster iterations have converged ---

----------------------
COUPLED CLUSTER ENERGY
----------------------

E(0)                                       ...  -9075.894418513
E(CORR)(strong-pairs)                      ...     -5.726056625
E(CORR)(weak-pairs)                        ...     -0.044736312
E(CORR)(corrected)                         ...     -5.770792937
E(TOT)                                     ...  -9081.665211449
Singles Norm <S|S>**1/2                    ...      0.284275571  
T1 diagnostic                              ...      0.022907578  

------------------
LARGEST AMPLITUDES
------------------
  83->112  83->112       0.193825
  83->115  -1-> -1       0.061733
  83->125  -1-> -1       0.051790
  56->112  -1-> -1       0.048826
  55->112  -1-> -1       0.048823
  58->112  -1-> -1       0.048821
  53->112  -1-> -1       0.048819
  54->112  -1-> -1       0.042634
  57->112  -1-> -1       0.042632
  87->112  -1-> -1       0.037419
  93->112  -1-> -1       0.037418
  88->112  -1-> -1       0.037417
  91->112  -1-> -1       0.037416
  95->114  -1-> -1       0.035893
  94->114  -1-> -1       0.035892
  59->113  59->113       0.033866


-------------------------------------------
DLPNO BASED TRIPLES CORRECTION
-------------------------------------------

Singles multiplier          ...  1.000000
TCutTNO                     ... 1.000e-09
TCutMP2Pairs                ... 1.000e-05
TCutDOStrong                ... 2.000e-02
TCutMKNStrong               ... 1.000e-02
TCutDOWeak                  ... 4.000e-02
TCutMKNWeak                 ... 1.000e-01

Fragment selection                          .... not used
Number of Triples that are to be computed   ...     13238

 . . . . . . . . .
10% done  
20% done  
30% done  
40% done  
50% done  
60% done  
70% done  
80% done  
90% done               (  14338.170 sec)
Triples timings:
Total time for T0               ... 14746.459 sec
Total time for Iterative (T)    ...     0.000 sec
Total time of overall (T)       ... 15399.116 sec

Triples List generation         ...     0.000 sec
TNO generation                  ...   408.079 sec
Pair density generation         ...     0.017 sec
Look up tables                  ...     0.000 sec
Generating 3-index integrals    ... 13387.478 sec
  Make 4-ind.int. from 3-ind.int...   343.459 sec
  Projecting amplitudes (D + S) ...   575.347 sec
  Downprojecting integrals      ...     0.010 sec
  Energy contr. (sum over a,b,c)...     8.999 sec
Fitting ET(->0)                 ...     0.000 sec

Everything after 3-index        ...   950.691 sec

Timing details:
 TNO integrals                  ... 13708.358 sec
   Reading 3-index integrals    ...    44.314 sec
   Sorting integrals            ...  2178.322 sec
       Sorting integrals 1      ...     0.011 sec
       Sorting integrals 2      ...  2146.942 sec
       Sorting integrals 3      ...     8.903 sec
       Sorting integrals 4      ...     2.010 sec
       Sorting integrals 5      ...    13.235 sec
       Sorting integrals 6      ...     7.220 sec
   Calculating local VM**-1/2   ...   149.724 sec
   Orthogonal. integrals        ...   111.206 sec
   Multipl. 3-index integrals   ... 11224.793 sec
   All concerning IRIab (w/TNO) ...    69.524 sec

 Calculate W0/W1                ...    22.717 sec
 W 3-ext contribution           ...     9.948 sec
 W 3-int contribution           ...     5.386 sec
 Sorting W                      ...     6.640 sec

 V exchange contribution        ...     3.306 sec

 Timings for Triples without generation
     of 3-index integrals       ...   950.679 sec
       0 weak pairs             ...   722.655 sec
       1 weak pair              ...   228.024 sec
       2 weak pairs             ...     0.000 sec
       3 weak pairs             ...     0.000 sec
  Extra time for extrapolation  ...     0.000 sec

Number of Triples   (0, 1, 2, 3 weak pairs; overall):   8974    4264       0       0  ( 13238)
Number of Atoms     (0, 1, 2, 3 weak pairs; overall):   13.3    11.9     0.0     0.0  (   115)
Number of PAOs      (0, 1, 2, 3 weak pairs; overall):  807.0   715.3     0.0     0.0  (  1144)
Number of AuxFcns   (0, 1, 2, 3 weak pairs; overall): 2490.9  1379.6     0.0     0.0  (  5508)
Number of TNOs      (0, 1, 2, 3 weak pairs         ):   72.7    49.2     0.0     0.0
Aver. Number of NTNO, Atoms, PAOs, AuxFcns / Triples:  13238    65.1    12.9   777.4  2132.9

Triples Correction (T)                     ...     -0.270198104
Final correlation energy                   ...     -6.040991041
E(CCSD)                                    ...  -9081.665211449
E(CCSD(T))                                 ...  -9081.935409553



------------------------------------------------------------------------------- 
                                     TIMINGS                                   
------------------------------------------------------------------------------- 


Total execution time                   ...    25053.558 sec

Localization of occupied MO's          ...       12.368 sec (  0.0%)
Fock Matrix Formation                  ...       45.088 sec (  0.2%)
Global overlap, Fock, MKN matrices     ...        3.054 sec (  0.0%)
Differential overlap integrals         ...        2.872 sec (  0.0%)
Organizing maps                        ...        0.503 sec (  0.0%)
RI 3-index integral generations        ...      169.065 sec (  0.7%)
RI-PNO integral transformation         ...     7845.897 sec ( 31.3%)
Initial Guess                          ...      627.995 sec (  2.5%)
DIIS Solver                            ...        2.398 sec (  0.0%)
State Vector Update                    ...        0.179 sec (  0.0%)
Sigma-vector construction              ...      938.702 sec (  3.7%)
  <0|H|D>                              ...        0.002 sec (  0.0% of sigma)
  <D|H|D>(0-ext)                       ...       21.217 sec (  2.3% of sigma)
  <D|H|D>(2-ext Fock)                  ...        0.032 sec (  0.0% of sigma)
  <D|H|D>(2-ext)                       ...      530.135 sec ( 56.5% of sigma)
  <D|H|D>(4-ext)                       ...       35.487 sec (  3.8% of sigma)
  <D|H|D>(4-ext-corr)                  ...      228.798 sec ( 24.4% of sigma)
  CCSD doubles correction              ...        0.621 sec (  0.1% of sigma)
  <S|H|S>                              ...        3.987 sec (  0.4% of sigma)
  <S|H|D>(1-ext)                       ...        2.187 sec (  0.2% of sigma)
  <D|H|S>(1-ext)                       ...        0.070 sec (  0.0% of sigma)
  <S|H|D>(3-ext)                       ...        0.616 sec (  0.1% of sigma)
  CCSD singles correction              ...        0.005 sec (  0.0% of sigma)
  Fock-dressing                        ...       83.424 sec (  8.9% of sigma)
  Singles amplitudes                   ...        9.550 sec (  1.0% of sigma)
  (ik|jl)-dressing                     ...       15.977 sec (  1.7% of sigma)
  (ij|ab),(ia|jb)-dressing             ...        4.982 sec (  0.5% of sigma)
  Pair energies                        ...        0.070 sec (  0.0% of sigma)
Total Time for computing (T)           ...    15401.550 sec ( 61.5% of ALL)


Maximum memory used throughout the entire MDCI-calculation: 59675.4 MB

-------------------------   --------------------
FINAL SINGLE POINT ENERGY     -9081.935409553409
-------------------------   --------------------


                            ***************************************
                            *     ORCA property calculations      *
                            ***************************************


  WARNING: The energy has been calculated at the MDCI level but the densities
           used in the property calculations are still SCF densities
           MDCI response densities have not been calculated 
           use %mdci Density linearized end
           or  %mdci Density unrelaxed end
           or  %mdci Density orbopt end

                                    ---------------------
                                    Active property flags
                                    ---------------------
   (+) Dipole Moment


------------------------------------------------------------------------------
                       ORCA ELECTRIC PROPERTIES CALCULATION
------------------------------------------------------------------------------

Dipole Moment Calculation                       ... on
Quadrupole Moment Calculation                   ... off
Polarizability Calculation                      ... off
GBWName                                         ... orca.gbw
Electron density                                ... orca.scfp
The origin for moment calculation is the CENTER OF MASS  = ( 0.000007, -0.000002 -2.659429)

-------------
DIPOLE MOMENT
-------------
                                X             Y             Z
Electronic contribution:      0.00027       0.00001      14.80946
Nuclear contribution   :     -0.01894       0.00016   -1797.82673
                        -----------------------------------------
Total Dipole Moment    :     -0.01867       0.00017   -1783.01727
                        -----------------------------------------
Magnitude (a.u.)       :   1783.01727
Magnitude (Debye)      :   4532.06972



--------------------
Rotational spectrum 
--------------------
 
Rotational constants in cm-1:     0.012896     0.005345     0.004267 
Rotational constants in MHz :   386.606791   160.228174   127.935621 

 Dipole components along the rotational axes: 
x,y,z [a.u.] :    -0.018319    -0.000725 -1783.017266 
x,y,z [Debye]:    -0.046564    -0.001842 -4532.069720 

 

Timings for individual modules:

Sum of individual times         ...    27923.325 sec (= 465.389 min)
GTO integral calculation        ...      509.345 sec (=   8.489 min)   1.8 %
SCF iterations                  ...     2352.684 sec (=  39.211 min)   8.4 %
MDCI module                     ...    25061.296 sec (= 417.688 min)  89.8 %
                             ****ORCA TERMINATED NORMALLY****
TOTAL RUN TIME: 0 days 7 hours 45 minutes 27 seconds 323 msec
