 **********************************************************************
                          MRCC program system
 **********************************************************************
 
                              Written by
 Mihaly Kallay, Peter R. Nagy, David Mester, Zoltan Rolik, Gyula Samu,
   Jozsef Csontos, Jozsef Csoka, P. Bernat Szabo, Laszlo Gyevi-Nagy,
    Bence Hegely, Istvan Ladjanszki, Lorant Szegedy, Bence Ladoczki,
       Klara Petrov, Mate Farkas, Pal D. Mezei, and Adam Ganyecz
 
        Department of Physical Chemistry and Materials Science
            Budapest University of Technology and Economics
                  Budapest P.O.Box 91, H-1521 Hungary
 
                              www.mrcc.hu
 
                    Release date: February 22, 2020

 ************************ 2021-11-17 15:45:57 *************************
 Executing minp...

 Reading input from MINP...
 
 Input file:
 
calc=LMP2
scftype=rhf
verbosity=3
mem=490GB
symm=off
unit=angs
scfiguess=restart
scfmaxit=1000
scfalg=locfit1

lcorthr=normal

charge=-66
core=374

basis=special
def2-TZVPP
def2-TZVPP
def2-TZVPP
def2-TZVPP
def2-TZVPP
def2-TZVPP
def2-TZVPP
def2-TZVPP
def2-TZVPP
def2-TZVPP
def2-TZVPP
def2-TZVPP
def2-TZVPP
def2-TZVPP
def2-TZVPP
def2-TZVPP
def2-TZVPP
def2-TZVPP
def2-TZVPP
def2-TZVPP
def2-TZVPP
def2-TZVPP
def2-TZVPP
def2-TZVPP
def2-TZVPP
def2-TZVPP
def2-TZVPP
def2-TZVPP
def2-TZVPP
def2-TZVPP
def2-TZVPP
def2-TZVPP
def2-TZVPP
def2-TZVPP
def2-TZVPP
def2-TZVPP
def2-TZVPP
def2-TZVPP
def2-TZVPP
def2-TZVPP
def2-TZVPP
def2-TZVPP
def2-TZVPP
def2-TZVPP
def2-TZVPP
def2-TZVPP
def2-TZVPP
def2-TZVPP
def2-TZVPP
def2-TZVPP
def2-TZVPP
def2-TZVPP
def2-TZVPP
def2-TZVPP
def2-TZVPP
def2-TZVPP
def2-TZVPP
def2-TZVPP
def2-TZVPP
def2-TZVPP
def2-TZVPP
def2-TZVPP
def2-TZVPP
def2-TZVPP
def2-TZVPP
def2-TZVPP
def2-TZVPP
def2-TZVPP
def2-TZVPP
def2-TZVPP
def2-TZVPP
def2-TZVPP
def2-TZVPP
def2-TZVPP
def2-TZVPP
def2-TZVPP
def2-TZVPP
def2-TZVPP
def2-TZVPP
def2-TZVPP
def2-TZVPP
def2-TZVPP
def2-TZVPP
def2-TZVPP
def2-TZVPP
def2-TZVPP
def2-TZVPP
def2-TZVPP
def2-TZVPP
def2-TZVPP
def2-TZVPP
def2-TZVPP
def2-TZVPP
def2-TZVPP
def2-TZVPP
def2-TZVPP
def2-TZVPP
def2-TZVPP
def2-TZVPP
def2-TZVPP
def2-TZVPP
def2-TZVPP
def2-TZVPP
def2-TZVPP
def2-TZVPP
def2-TZVPP
def2-TZVPP
def2-TZVPP
def2-TZVPP
def2-TZVPP
def2-TZVPP
def2-TZVPP
def2-TZVPP
def2-TZVPP
def2-TZVPP
def2-TZVPP
def2-TZVPP
def2-TZVPP
def2-TZVPP
def2-TZVPP
def2-TZVPP
def2-TZVPP
def2-TZVPP
def2-TZVPP
def2-TZVPP
def2-TZVPP
nothing
nothing
nothing
nothing
nothing
nothing
nothing
nothing
nothing
nothing
nothing
nothing
nothing
nothing
nothing
nothing
nothing
nothing
nothing
nothing
nothing
nothing
nothing
nothing
nothing
nothing
nothing
nothing
nothing
nothing
nothing
nothing
nothing
nothing
nothing
nothing
nothing
nothing
nothing
nothing
nothing
nothing
nothing
nothing
nothing
nothing
nothing
nothing
nothing
nothing
nothing
nothing
nothing
nothing
nothing
nothing
nothing
nothing
nothing
nothing
nothing
nothing
nothing
nothing
nothing
nothing
nothing
nothing
nothing
nothing
nothing
nothing
nothing
nothing
nothing
nothing
nothing
nothing
nothing
nothing
nothing
nothing
nothing
nothing
nothing
nothing
nothing
nothing
nothing
nothing
nothing
nothing
nothing
nothing
nothing
nothing
nothing
nothing
nothing
nothing
nothing
nothing
nothing
nothing
nothing
nothing
nothing
nothing
nothing
nothing
nothing
nothing
nothing
nothing
nothing
nothing
nothing
nothing
nothing
nothing
nothing
nothing
nothing
nothing
nothing
nothing
nothing
nothing
nothing
nothing
nothing
nothing
nothing
nothing
nothing
nothing
nothing
nothing
nothing
nothing
nothing
nothing
nothing
nothing
nothing
nothing
nothing
nothing
nothing
nothing
nothing
nothing
nothing
nothing
nothing
nothing
nothing
nothing
nothing
nothing
nothing
nothing
nothing
nothing
nothing
nothing
nothing
nothing
nothing
nothing
nothing
nothing
nothing
nothing
nothing
nothing
nothing
nothing
nothing
nothing
nothing
nothing
nothing
nothing
nothing
nothing
nothing
nothing
nothing
nothing
nothing
nothing
nothing
nothing
nothing
nothing
nothing
nothing
nothing
nothing
nothing
nothing
nothing

basis_sm=special
STO-3G
STO-3G
STO-3G
STO-3G
STO-3G
STO-3G
STO-3G
STO-3G
STO-3G
STO-3G
STO-3G
STO-3G
STO-3G
STO-3G
STO-3G
STO-3G
STO-3G
STO-3G
STO-3G
STO-3G
STO-3G
STO-3G
STO-3G
STO-3G
STO-3G
STO-3G
STO-3G
STO-3G
STO-3G
STO-3G
STO-3G
STO-3G
STO-3G
STO-3G
STO-3G
STO-3G
STO-3G
STO-3G
STO-3G
STO-3G
STO-3G
STO-3G
STO-3G
STO-3G
STO-3G
STO-3G
STO-3G
STO-3G
STO-3G
STO-3G
STO-3G
STO-3G
STO-3G
STO-3G
STO-3G
STO-3G
STO-3G
STO-3G
STO-3G
STO-3G
STO-3G
STO-3G
STO-3G
STO-3G
STO-3G
STO-3G
STO-3G
STO-3G
STO-3G
STO-3G
STO-3G
STO-3G
STO-3G
STO-3G
STO-3G
STO-3G
STO-3G
STO-3G
STO-3G
STO-3G
STO-3G
STO-3G
STO-3G
STO-3G
STO-3G
STO-3G
STO-3G
STO-3G
STO-3G
STO-3G
STO-3G
STO-3G
STO-3G
STO-3G
STO-3G
STO-3G
STO-3G
STO-3G
STO-3G
STO-3G
STO-3G
STO-3G
STO-3G
STO-3G
STO-3G
STO-3G
STO-3G
STO-3G
STO-3G
STO-3G
STO-3G
STO-3G
STO-3G
STO-3G
STO-3G
STO-3G
STO-3G
STO-3G
STO-3G
STO-3G
STO-3G
STO-3G
STO-3G
STO-3G
STO-3G
STO-3G
nothing
nothing
nothing
nothing
nothing
nothing
nothing
nothing
nothing
nothing
nothing
nothing
nothing
nothing
nothing
nothing
nothing
nothing
nothing
nothing
nothing
nothing
nothing
nothing
nothing
nothing
nothing
nothing
nothing
nothing
nothing
nothing
nothing
nothing
nothing
nothing
nothing
nothing
nothing
nothing
nothing
nothing
nothing
nothing
nothing
nothing
nothing
nothing
nothing
nothing
nothing
nothing
nothing
nothing
nothing
nothing
nothing
nothing
nothing
nothing
nothing
nothing
nothing
nothing
nothing
nothing
nothing
nothing
nothing
nothing
nothing
nothing
nothing
nothing
nothing
nothing
nothing
nothing
nothing
nothing
nothing
nothing
nothing
nothing
nothing
nothing
nothing
nothing
nothing
nothing
nothing
nothing
nothing
nothing
nothing
nothing
nothing
nothing
nothing
nothing
nothing
nothing
nothing
nothing
nothing
nothing
nothing
nothing
nothing
nothing
nothing
nothing
nothing
nothing
nothing
nothing
nothing
nothing
nothing
nothing
nothing
nothing
nothing
nothing
nothing
nothing
nothing
nothing
nothing
nothing
nothing
nothing
nothing
nothing
nothing
nothing
nothing
nothing
nothing
nothing
nothing
nothing
nothing
nothing
nothing
nothing
nothing
nothing
nothing
nothing
nothing
nothing
nothing
nothing
nothing
nothing
nothing
nothing
nothing
nothing
nothing
nothing
nothing
nothing
nothing
nothing
nothing
nothing
nothing
nothing
nothing
nothing
nothing
nothing
nothing
nothing
nothing
nothing
nothing
nothing
nothing
nothing
nothing
nothing
nothing
nothing
nothing
nothing
nothing
nothing
nothing
nothing
nothing
nothing
nothing
nothing
nothing
nothing
nothing
nothing
nothing
nothing
nothing

dfbasis_scf=special
def2-QZVPP-RI-JK
def2-QZVPP-RI-JK
def2-QZVPP-RI-JK
def2-QZVPP-RI-JK
def2-QZVPP-RI-JK
def2-QZVPP-RI-JK
def2-QZVPP-RI-JK
def2-QZVPP-RI-JK
def2-QZVPP-RI-JK
def2-QZVPP-RI-JK
def2-QZVPP-RI-JK
def2-QZVPP-RI-JK
def2-QZVPP-RI-JK
def2-QZVPP-RI-JK
def2-QZVPP-RI-JK
def2-QZVPP-RI-JK
def2-QZVPP-RI-JK
def2-QZVPP-RI-JK
def2-QZVPP-RI-JK
def2-QZVPP-RI-JK
def2-QZVPP-RI-JK
def2-QZVPP-RI-JK
def2-QZVPP-RI-JK
def2-QZVPP-RI-JK
def2-QZVPP-RI-JK
def2-QZVPP-RI-JK
def2-QZVPP-RI-JK
def2-QZVPP-RI-JK
def2-QZVPP-RI-JK
def2-QZVPP-RI-JK
def2-QZVPP-RI-JK
def2-QZVPP-RI-JK
def2-QZVPP-RI-JK
def2-QZVPP-RI-JK
def2-QZVPP-RI-JK
def2-QZVPP-RI-JK
def2-QZVPP-RI-JK
def2-QZVPP-RI-JK
def2-QZVPP-RI-JK
def2-QZVPP-RI-JK
def2-QZVPP-RI-JK
def2-QZVPP-RI-JK
def2-QZVPP-RI-JK
def2-QZVPP-RI-JK
def2-QZVPP-RI-JK
def2-QZVPP-RI-JK
def2-QZVPP-RI-JK
def2-QZVPP-RI-JK
def2-QZVPP-RI-JK
def2-QZVPP-RI-JK
def2-QZVPP-RI-JK
def2-QZVPP-RI-JK
def2-QZVPP-RI-JK
def2-QZVPP-RI-JK
def2-QZVPP-RI-JK
def2-QZVPP-RI-JK
def2-QZVPP-RI-JK
def2-QZVPP-RI-JK
def2-QZVPP-RI-JK
def2-QZVPP-RI-JK
def2-QZVPP-RI-JK
def2-QZVPP-RI-JK
def2-QZVPP-RI-JK
def2-QZVPP-RI-JK
def2-QZVPP-RI-JK
def2-QZVPP-RI-JK
def2-QZVPP-RI-JK
def2-QZVPP-RI-JK
def2-QZVPP-RI-JK
def2-QZVPP-RI-JK
def2-QZVPP-RI-JK
def2-QZVPP-RI-JK
def2-QZVPP-RI-JK
def2-QZVPP-RI-JK
def2-QZVPP-RI-JK
def2-QZVPP-RI-JK
def2-QZVPP-RI-JK
def2-QZVPP-RI-JK
def2-QZVPP-RI-JK
def2-QZVPP-RI-JK
def2-QZVPP-RI-JK
def2-QZVPP-RI-JK
def2-QZVPP-RI-JK
def2-QZVPP-RI-JK
def2-QZVPP-RI-JK
def2-QZVPP-RI-JK
def2-QZVPP-RI-JK
def2-QZVPP-RI-JK
def2-QZVPP-RI-JK
def2-QZVPP-RI-JK
def2-QZVPP-RI-JK
def2-QZVPP-RI-JK
def2-QZVPP-RI-JK
def2-QZVPP-RI-JK
def2-QZVPP-RI-JK
def2-QZVPP-RI-JK
def2-QZVPP-RI-JK
def2-QZVPP-RI-JK
def2-QZVPP-RI-JK
def2-QZVPP-RI-JK
def2-QZVPP-RI-JK
def2-QZVPP-RI-JK
def2-QZVPP-RI-JK
def2-QZVPP-RI-JK
def2-QZVPP-RI-JK
def2-QZVPP-RI-JK
def2-QZVPP-RI-JK
def2-QZVPP-RI-JK
def2-QZVPP-RI-JK
def2-QZVPP-RI-JK
def2-QZVPP-RI-JK
def2-QZVPP-RI-JK
def2-QZVPP-RI-JK
def2-QZVPP-RI-JK
def2-QZVPP-RI-JK
def2-QZVPP-RI-JK
def2-QZVPP-RI-JK
def2-QZVPP-RI-JK
def2-QZVPP-RI-JK
def2-QZVPP-RI-JK
def2-QZVPP-RI-JK
def2-QZVPP-RI-JK
def2-QZVPP-RI-JK
def2-QZVPP-RI-JK
def2-QZVPP-RI-JK
def2-QZVPP-RI-JK
nothing
nothing
nothing
nothing
nothing
nothing
nothing
nothing
nothing
nothing
nothing
nothing
nothing
nothing
nothing
nothing
nothing
nothing
nothing
nothing
nothing
nothing
nothing
nothing
nothing
nothing
nothing
nothing
nothing
nothing
nothing
nothing
nothing
nothing
nothing
nothing
nothing
nothing
nothing
nothing
nothing
nothing
nothing
nothing
nothing
nothing
nothing
nothing
nothing
nothing
nothing
nothing
nothing
nothing
nothing
nothing
nothing
nothing
nothing
nothing
nothing
nothing
nothing
nothing
nothing
nothing
nothing
nothing
nothing
nothing
nothing
nothing
nothing
nothing
nothing
nothing
nothing
nothing
nothing
nothing
nothing
nothing
nothing
nothing
nothing
nothing
nothing
nothing
nothing
nothing
nothing
nothing
nothing
nothing
nothing
nothing
nothing
nothing
nothing
nothing
nothing
nothing
nothing
nothing
nothing
nothing
nothing
nothing
nothing
nothing
nothing
nothing
nothing
nothing
nothing
nothing
nothing
nothing
nothing
nothing
nothing
nothing
nothing
nothing
nothing
nothing
nothing
nothing
nothing
nothing
nothing
nothing
nothing
nothing
nothing
nothing
nothing
nothing
nothing
nothing
nothing
nothing
nothing
nothing
nothing
nothing
nothing
nothing
nothing
nothing
nothing
nothing
nothing
nothing
nothing
nothing
nothing
nothing
nothing
nothing
nothing
nothing
nothing
nothing
nothing
nothing
nothing
nothing
nothing
nothing
nothing
nothing
nothing
nothing
nothing
nothing
nothing
nothing
nothing
nothing
nothing
nothing
nothing
nothing
nothing
nothing
nothing
nothing
nothing
nothing
nothing
nothing
nothing
nothing
nothing
nothing
nothing
nothing
nothing
nothing
nothing
nothing
nothing

dfbasis_cor=special
def2-TZVPP-RI
def2-TZVPP-RI
def2-TZVPP-RI
def2-TZVPP-RI
def2-TZVPP-RI
def2-TZVPP-RI
def2-TZVPP-RI
def2-TZVPP-RI
def2-TZVPP-RI
def2-TZVPP-RI
def2-TZVPP-RI
def2-TZVPP-RI
def2-TZVPP-RI
def2-TZVPP-RI
def2-TZVPP-RI
def2-TZVPP-RI
def2-TZVPP-RI
def2-TZVPP-RI
def2-TZVPP-RI
def2-TZVPP-RI
def2-TZVPP-RI
def2-TZVPP-RI
def2-TZVPP-RI
def2-TZVPP-RI
def2-TZVPP-RI
def2-TZVPP-RI
def2-TZVPP-RI
def2-TZVPP-RI
def2-TZVPP-RI
def2-TZVPP-RI
def2-TZVPP-RI
def2-TZVPP-RI
def2-TZVPP-RI
def2-TZVPP-RI
def2-TZVPP-RI
def2-TZVPP-RI
def2-TZVPP-RI
def2-TZVPP-RI
def2-TZVPP-RI
def2-TZVPP-RI
def2-TZVPP-RI
def2-TZVPP-RI
def2-TZVPP-RI
def2-TZVPP-RI
def2-TZVPP-RI
def2-TZVPP-RI
def2-TZVPP-RI
def2-TZVPP-RI
def2-TZVPP-RI
def2-TZVPP-RI
def2-TZVPP-RI
def2-TZVPP-RI
def2-TZVPP-RI
def2-TZVPP-RI
def2-TZVPP-RI
def2-TZVPP-RI
def2-TZVPP-RI
def2-TZVPP-RI
def2-TZVPP-RI
def2-TZVPP-RI
def2-TZVPP-RI
def2-TZVPP-RI
def2-TZVPP-RI
def2-TZVPP-RI
def2-TZVPP-RI
def2-TZVPP-RI
def2-TZVPP-RI
def2-TZVPP-RI
def2-TZVPP-RI
def2-TZVPP-RI
def2-TZVPP-RI
def2-TZVPP-RI
def2-TZVPP-RI
def2-TZVPP-RI
def2-TZVPP-RI
def2-TZVPP-RI
def2-TZVPP-RI
def2-TZVPP-RI
def2-TZVPP-RI
def2-TZVPP-RI
def2-TZVPP-RI
def2-TZVPP-RI
def2-TZVPP-RI
def2-TZVPP-RI
def2-TZVPP-RI
def2-TZVPP-RI
def2-TZVPP-RI
def2-TZVPP-RI
def2-TZVPP-RI
def2-TZVPP-RI
def2-TZVPP-RI
def2-TZVPP-RI
def2-TZVPP-RI
def2-TZVPP-RI
def2-TZVPP-RI
def2-TZVPP-RI
def2-TZVPP-RI
def2-TZVPP-RI
def2-TZVPP-RI
def2-TZVPP-RI
def2-TZVPP-RI
def2-TZVPP-RI
def2-TZVPP-RI
def2-TZVPP-RI
def2-TZVPP-RI
def2-TZVPP-RI
def2-TZVPP-RI
def2-TZVPP-RI
def2-TZVPP-RI
def2-TZVPP-RI
def2-TZVPP-RI
def2-TZVPP-RI
def2-TZVPP-RI
def2-TZVPP-RI
def2-TZVPP-RI
def2-TZVPP-RI
def2-TZVPP-RI
def2-TZVPP-RI
def2-TZVPP-RI
def2-TZVPP-RI
def2-TZVPP-RI
def2-TZVPP-RI
def2-TZVPP-RI
def2-TZVPP-RI
def2-TZVPP-RI
def2-TZVPP-RI
nothing
nothing
nothing
nothing
nothing
nothing
nothing
nothing
nothing
nothing
nothing
nothing
nothing
nothing
nothing
nothing
nothing
nothing
nothing
nothing
nothing
nothing
nothing
nothing
nothing
nothing
nothing
nothing
nothing
nothing
nothing
nothing
nothing
nothing
nothing
nothing
nothing
nothing
nothing
nothing
nothing
nothing
nothing
nothing
nothing
nothing
nothing
nothing
nothing
nothing
nothing
nothing
nothing
nothing
nothing
nothing
nothing
nothing
nothing
nothing
nothing
nothing
nothing
nothing
nothing
nothing
nothing
nothing
nothing
nothing
nothing
nothing
nothing
nothing
nothing
nothing
nothing
nothing
nothing
nothing
nothing
nothing
nothing
nothing
nothing
nothing
nothing
nothing
nothing
nothing
nothing
nothing
nothing
nothing
nothing
nothing
nothing
nothing
nothing
nothing
nothing
nothing
nothing
nothing
nothing
nothing
nothing
nothing
nothing
nothing
nothing
nothing
nothing
nothing
nothing
nothing
nothing
nothing
nothing
nothing
nothing
nothing
nothing
nothing
nothing
nothing
nothing
nothing
nothing
nothing
nothing
nothing
nothing
nothing
nothing
nothing
nothing
nothing
nothing
nothing
nothing
nothing
nothing
nothing
nothing
nothing
nothing
nothing
nothing
nothing
nothing
nothing
nothing
nothing
nothing
nothing
nothing
nothing
nothing
nothing
nothing
nothing
nothing
nothing
nothing
nothing
nothing
nothing
nothing
nothing
nothing
nothing
nothing
nothing
nothing
nothing
nothing
nothing
nothing
nothing
nothing
nothing
nothing
nothing
nothing
nothing
nothing
nothing
nothing
nothing
nothing
nothing
nothing
nothing
nothing
nothing
nothing
nothing
nothing
nothing
nothing
nothing
nothing

ecp=special
none
none
none
none
none
none
none
none
none
none
none
none
none
none
none
none
none
none
none
none
none
none
none
none
none
none
none
none
none
none
none
none
none
none
none
none
none
none
none
none
none
none
none
none
none
none
none
none
none
none
none
none
none
none
none
none
none
none
none
none
none
none
none
none
none
none
none
none
none
none
none
none
none
none
none
none
none
none
none
none
none
none
none
none
none
none
none
none
none
none
none
none
none
none
none
none
none
none
none
none
none
none
none
none
none
none
none
none
none
none
none
none
none
none
none
none
none
none
none
none
none
none
none
none
none
none
ECP-22
ECP-22
ECP-22
ECP-22
ECP-22
ECP-22
ECP-22
ECP-22
ECP-22
ECP-22
ECP-22
ECP-22
ECP-22
ECP-22
ECP-22
ECP-22
ECP-22
ECP-22
ECP-22
ECP-22
ECP-22
ECP-22
ECP-22
ECP-22
ECP-22
ECP-22
ECP-22
ECP-22
ECP-22
ECP-22
ECP-22
ECP-22
ECP-22
ECP-22
ECP-22
ECP-22
ECP-22
ECP-22
ECP-22
ECP-22
ECP-22
ECP-22
ECP-22
ECP-22
ECP-22
ECP-22
ECP-22
ECP-22
ECP-22
ECP-22
ECP-22
ECP-22
ECP-22
ECP-22
ECP-22
ECP-22
ECP-22
ECP-22
ECP-22
ECP-22
ECP-22
ECP-22
ECP-22
ECP-22
ECP-22
ECP-22
ECP-22
ECP-22
ECP-22
ECP-22
ECP-22
ECP-22
ECP-22
ECP-22
ECP-22
ECP-22
ECP-22
ECP-22
ECP-22
ECP-22
ECP-22
ECP-22
ECP-22
ECP-22
ECP-22
ECP-22
ECP-22
ECP-22
ECP-22
ECP-22
ECP-22
ECP-22
ECP-22
ECP-22
ECP-22
ECP-22
ECP-22
ECP-22
ECP-22
ECP-22
ECP-22
ECP-22
ECP-22
ECP-22
ECP-22
ECP-22
ECP-22
ECP-22
ECP-22
ECP-22
ECP-22
ECP-22
ECP-22
ECP-22
ECP-22
ECP-22
ECP-22
ECP-22
ECP-22
ECP-22
ECP-22
ECP-22
ECP-22
ECP-22
ECP-22
ECP-22
ECP-22
ECP-22
ECP-22
ECP-22
ECP-22
ECP-22
ECP-22
ECP-22
ECP-22
ECP-22
ECP-22
ECP-22
ECP-22
ECP-22
ECP-22
ECP-22
ECP-22
ECP-22
ECP-22
ECP-22
ECP-22
ECP-22
ECP-22
ECP-22
ECP-22
ECP-22
ECP-22
ECP-22
ECP-22
ECP-22
ECP-22
ECP-22
ECP-22
ECP-22
ECP-22
ECP-22
ECP-22
ECP-22
ECP-22
ECP-22
ECP-22
ECP-22
ECP-22
ECP-22
ECP-22
ECP-22
ECP-22
ECP-22
ECP-22
ECP-22
ECP-22
ECP-22
ECP-22
ECP-22
ECP-22
ECP-22
ECP-22
ECP-22
ECP-22
ECP-22
ECP-22
ECP-22
ECP-22
ECP-22
ECP-22
ECP-22
ECP-22
ECP-22
ECP-22
ECP-22
ECP-22
ECP-22
ECP-22
ECP-22
ECP-22
ECP-22
ECP-22

unit=angs
geom=xyz
329
Ti31O95ECP203
O     0.00000000000    0.00000000000    0.00000000000
Ti    0.00000536997    1.48055149700   -1.06892606631
Ti    0.00000552101   -1.48055312386   -1.06892138720
O     0.00000442396   -0.00000111986   -2.54840301833
O    -2.03525914147    1.48054518365   -1.11149385695
O     2.03526534753    1.48054527935   -1.11149163807
O     2.03526471018   -1.48054700097   -1.11149295951
O    -2.03525907462   -1.48054722666   -1.11149503385
O    -0.00000037752    2.96109155033   -0.00000271770
O    -0.00000037752   -2.96109552160   -0.00000271770
Ti    3.25402319191   -0.00000112036   -1.42716202606
Ti   -3.25401610555   -0.00000112036   -1.42716202606
O     0.00000449994    2.96109199200   -2.54840438198
O     0.00000449994   -2.96109507993   -2.54840438198
Ti   -0.00005220374   -0.00000071014   -4.41288396045
Ti    0.00000552101    4.44163394806   -1.06892138720
Ti    0.00000536997   -4.44163557493   -1.06892606631
O     3.25402603430   -0.00000063665   -3.23990501486
O    -3.25401326317   -0.00000063665   -3.23990501486
Ti   -3.25401668289    2.96109302555   -1.42716235830
Ti    3.25402261457    2.96109302555   -1.42716235830
Ti    3.25402261457   -2.96109404638   -1.42716235830
Ti   -3.25401668289   -2.96109404638   -1.42716235830
O    -4.47277394994    1.48054527935   -1.11149163807
O     4.47278015600    1.48054518365   -1.11149385695
O     4.47278022285   -1.48054722666   -1.11149503385
O    -4.47277458729   -1.48054700097   -1.11149295951
O    -1.30106804451    1.48054600613   -4.51644966155
O     1.30109103436    1.48054591013   -4.51645509582
O     1.30109095673   -1.48054821213   -4.51645492343
O    -1.30106798933   -1.48054805070   -4.51644946585
O    -2.03525907462    4.44163984526   -1.11149503385
O     2.03526471018    4.44164007096   -1.11149295951
O     2.03526534753   -4.44164179257   -1.11149163807
O    -2.03525914147   -4.44164188827   -1.11149385695
Ti   -0.00005206359    2.96109301637   -4.41288206312
Ti   -0.00005206359   -2.96109405556   -4.41288206312
O    -3.25401306857    2.96109209923   -3.23990596489
O     3.25402622890    2.96109209923   -3.23990596489
O     3.25402622890   -2.96109497270   -3.23990596489
O    -3.25401306857   -2.96109497270   -3.23990596489
Ti    3.25395215162    1.48054533538   -4.59991327640
Ti    3.25395195581   -1.48054722422   -4.59991284715
Ti   -3.25408714585    1.48054533538   -4.59991327640
Ti   -3.25408734165   -1.48054722422   -4.59991284715
O     0.00000000000    5.92218707193    0.00000000000
O     0.00000000000   -5.92218707193    0.00000000000
O    -4.47277458729    4.44164007096   -1.11149295951
O     4.47278022285    4.44163984526   -1.11149503385
O     4.47278015600   -4.44164188827   -1.11149385695
O    -4.47277394994   -4.44164179257   -1.11149163807
O     0.00000442396    5.92218595207   -2.54840301833
O     0.00000442396   -5.92218819178   -2.54840301833
O    -1.30106798933    4.44163902122   -4.51644946585
O     1.30109095673    4.44163885980   -4.51645492343
O     1.30109103436   -4.44164116180   -4.51645509582
O    -1.30106804451   -4.44164106579   -4.51644966155
O    -6.50803929747    0.00000000000    0.00000000000
O     6.50803929747    0.00000000000    0.00000000000
O    -0.00000306899   -0.00000100232   -6.51331789952
O     3.25402501297   -0.00000107099   -5.78839374873
O    -3.25401428450   -0.00000107099   -5.78839374873
Ti   -6.50803392749    1.48055149700   -1.06892606631
Ti    6.50804466744    1.48055149700   -1.06892606631
Ti    6.50804481848   -1.48055312386   -1.06892138720
Ti   -6.50803377645   -1.48055312386   -1.06892138720
Ti   -3.25401610555    5.92218595157   -1.42716202606
Ti    3.25402319191    5.92218595157   -1.42716202606
Ti    3.25402319191   -5.92218819228   -1.42716202606
Ti   -3.25401610555   -5.92218819228   -1.42716202606
O     6.50804372142   -0.00000111986   -2.54840301833
O    -6.50803487351   -0.00000111986   -2.54840301833
O    -5.20694826311    1.48054591013   -4.51645509582
O     5.20697125296    1.48054600613   -4.51644966155
O     5.20697130813   -1.48054805070   -4.51644946585
O    -5.20694834074   -1.48054821213   -4.51645492343
O    -6.50803967498    2.96109155033   -0.00000271770
O     6.50803891995    2.96109155033   -0.00000271770
O     6.50803891995   -2.96109552160   -0.00000271770
O    -6.50803967498   -2.96109552160   -0.00000271770
O    -0.00000306899    2.96109253364   -6.51331789952
O    -0.00000306899   -2.96109453828   -6.51331789952
Ti    3.25395195581    4.44163984770   -4.59991284715
Ti    3.25395215162   -4.44164173655   -4.59991327640
Ti   -3.25408734165    4.44163984770   -4.59991284715
Ti   -3.25408714585   -4.44164173655   -4.59991327640
O    -3.25401413420    2.96109275570   -5.78839415273
O     3.25402516327    2.96109275570   -5.78839415273
O     3.25402516327   -2.96109431623   -5.78839415273
O    -3.25401413420   -2.96109431623   -5.78839415273
Ti   -0.00005220374    5.92218636178   -4.41288396045
Ti   -0.00005220374   -5.92218778207   -4.41288396045
O    -3.25401326317    5.92218643528   -3.23990501486
O     3.25402603430    5.92218643528   -3.23990501486
O     3.25402603430   -5.92218770857   -3.23990501486
O    -3.25401326317   -5.92218770857   -3.23990501486
O    -6.50803479753    2.96109199200   -2.54840438198
O     6.50804379741    2.96109199200   -2.54840438198
O     6.50804379741   -2.96109507993   -2.54840438198
O    -6.50803479753   -2.96109507993   -2.54840438198
O    -2.03525914147    7.40273225558   -1.11149385695
O     2.03526534753    7.40273235128   -1.11149163807
O     2.03526471018   -7.40273407290   -1.11149295951
O    -2.03525907462   -7.40273429859   -1.11149503385
O    -5.20694834074    4.44163885980   -4.51645492343
O     5.20697130813    4.44163902122   -4.51644946585
O     5.20697125296   -4.44164106579   -4.51644966155
O    -5.20694826311   -4.44164116180   -4.51645509582
O    -4.47277394994    7.40273235128   -1.11149163807
O     4.47278015600    7.40273225558   -1.11149385695
O     4.47278022285   -7.40273429859   -1.11149503385
O    -4.47277458729   -7.40273407290   -1.11149295951
O    -8.54329843894    1.48054518365   -1.11149385695
O     8.54330464500    1.48054527935   -1.11149163807
O     8.54330400764   -1.48054700097   -1.11149295951
O    -8.54329837208   -1.48054722666   -1.11149503385
O    -1.30106804451    7.40273307806   -4.51644966155
O     1.30109103436    7.40273298205   -4.51645509582
O     1.30109095673   -7.40273528405   -4.51645492343
O    -1.30106798933   -7.40273512263   -4.51644946585
O    -0.00000306899    5.92218606960   -6.51331789952
O    -0.00000306899   -5.92218807425   -6.51331789952
O    -3.25401428450    5.92218600093   -5.78839374873
O     3.25402501297    5.92218600093   -5.78839374873
O     3.25402501297   -5.92218814292   -5.78839374873
O    -3.25401428450   -5.92218814292   -5.78839374873
Ti    0.00000536997    7.40273856892   -1.06892606631
Ti    0.00000552101   -7.40274019579   -1.06892138720
Ti    6.50798709372   -0.00000071014   -4.41288396045
Ti   -6.50809150121   -0.00000071014   -4.41288396045
Ti   -0.00000306899    1.48054576566   -7.78540932970
Ti   -0.00000306899   -1.48054777030   -7.78540932970
Ti   -6.50803377645    4.44163394806   -1.06892138720
Ti    6.50804481848    4.44163394806   -1.06892138720
Ti    6.50804466744   -4.44163557493   -1.06892606631
Ti   -6.50803392749   -4.44163557493   -1.06892606631
Ti    6.50798723387    2.96109301637   -4.41288206312
Ti    6.50798723387   -2.96109405556   -4.41288206312
Ti   -6.50809136106    2.96109301637   -4.41288206312
Ti   -6.50809136106   -2.96109405556   -4.41288206312
Ti    3.25401657974   -0.00000100232   -7.78540932970
Ti   -3.25402271772   -0.00000100232   -7.78540932970
Ti   -3.25402271772    2.96109253364   -7.78540932970
Ti    3.25401657974    2.96109253364   -7.78540932970
Ti    3.25401657974   -2.96109453828   -7.78540932970
Ti   -3.25402271772   -2.96109453828   -7.78540932970
Ti   -0.00000306899    4.44163930162   -7.78540932970
Ti   -0.00000306899   -4.44164130627   -7.78540932970
Ti   -3.25408714585    7.40273240730   -4.59991327640
Ti    3.25395215162    7.40273240730   -4.59991327640
Ti    3.25395195581   -7.40273429615   -4.59991284715
Ti   -3.25408734165   -7.40273429615   -4.59991284715
Ti   -3.25401668289    8.88328009748   -1.42716235830
Ti    3.25402261457    8.88328009748   -1.42716235830
Ti    3.25402261457   -8.88328111830   -1.42716235830
Ti   -3.25401668289   -8.88328111830   -1.42716235830
Ti    6.50798709372    5.92218636178   -4.41288396045
Ti    6.50798709372   -5.92218778207   -4.41288396045
Ti   -6.50809150121    5.92218636178   -4.41288396045
Ti   -6.50809150121   -5.92218778207   -4.41288396045
Ti    9.76206248938   -0.00000112036   -1.42716202606
Ti   -9.76205540302   -0.00000112036   -1.42716202606
Ti   -6.50803392749    7.40273856892   -1.06892606631
Ti    6.50804466744    7.40273856892   -1.06892606631
Ti    6.50804481848   -7.40274019579   -1.06892138720
Ti   -6.50803377645   -7.40274019579   -1.06892138720
Ti   -0.00005206359    8.88328008829   -4.41288206312
Ti   -0.00005206359   -8.88328112748   -4.41288206312
Ti   -6.50804236645    1.48054576566   -7.78540932970
Ti    6.50803622848    1.48054576566   -7.78540932970
Ti    6.50803622848   -1.48054777030   -7.78540932970
Ti   -6.50804236645   -1.48054777030   -7.78540932970
Ti   -9.76205598036    2.96109302555   -1.42716235830
Ti    9.76206191204    2.96109302555   -1.42716235830
Ti    9.76206191204   -2.96109404638   -1.42716235830
Ti   -9.76205598036   -2.96109404638   -1.42716235830
Ti   -3.25402271772    5.92218606960   -7.78540932970
Ti    3.25401657974    5.92218606960   -7.78540932970
Ti    3.25401657974   -5.92218807425   -7.78540932970
Ti   -3.25402271772   -5.92218807425   -7.78540932970
Ti    0.00000552101   10.36382101999   -1.06892138720
Ti    0.00000536997  -10.36382264685   -1.06892606631
Ti   -0.00000306899    7.40273283758   -7.78540932970
Ti   -0.00000306899   -7.40273484223   -7.78540932970
Ti    9.76199144908    1.48054533538   -4.59991327640
Ti    9.76199125328   -1.48054722422   -4.59991284715
Ti   -9.76212644332    1.48054533538   -4.59991327640
Ti   -9.76212663912   -1.48054722422   -4.59991284715
Ti   -0.00000306899   -0.00000100232  -11.03942897843
Ti   -6.50804236645    4.44163930162   -7.78540932970
Ti    6.50803622848    4.44163930162   -7.78540932970
Ti    6.50803622848   -4.44164130627   -7.78540932970
Ti   -6.50804236645   -4.44164130627   -7.78540932970
Ti   -0.00000306899    2.96109253364  -11.03942897843
Ti   -0.00000306899   -2.96109453828  -11.03942897843
Ti   -9.76205540302    5.92218595157   -1.42716202606
Ti    9.76206248938    5.92218595157   -1.42716202606
Ti    9.76206248938   -5.92218819228   -1.42716202606
Ti   -9.76205540302   -5.92218819228   -1.42716202606
Ti   -3.25402271772    1.48054576566  -11.03942897843
Ti    3.25401657974    1.48054576566  -11.03942897843
Ti    3.25401657974   -1.48054777030  -11.03942897843
Ti   -3.25402271772   -1.48054777030  -11.03942897843
Ti    9.76199125328    4.44163984770   -4.59991284715
Ti    9.76199144908   -4.44164173655   -4.59991327640
Ti   -9.76212663912    4.44163984770   -4.59991284715
Ti   -9.76212644332   -4.44164173655   -4.59991327640
Ti   -3.25408734165   10.36382691963   -4.59991284715
Ti    3.25395195581   10.36382691963   -4.59991284715
Ti    3.25395215162  -10.36382880847   -4.59991327640
Ti   -3.25408714585  -10.36382880847   -4.59991327640
Ti    6.50798723387    8.88328008829   -4.41288206312
Ti    6.50798723387   -8.88328112748   -4.41288206312
Ti   -6.50809136106    8.88328008829   -4.41288206312
Ti   -6.50809136106   -8.88328112748   -4.41288206312
Ti   -3.25402271772    8.88327960557   -7.78540932970
Ti    3.25401657974    8.88327960557   -7.78540932970
Ti    3.25401657974   -8.88328161021   -7.78540932970
Ti   -3.25402271772   -8.88328161021   -7.78540932970
Ti   -6.50803377645   10.36382101999   -1.06892138720
Ti    6.50804481848   10.36382101999   -1.06892138720
Ti    6.50804466744  -10.36382264685   -1.06892606631
Ti   -6.50803392749  -10.36382264685   -1.06892606631
Ti   -3.25402271772    4.44163930162  -11.03942897843
Ti    3.25401657974    4.44163930162  -11.03942897843
Ti    3.25401657974   -4.44164130627  -11.03942897843
Ti   -3.25402271772   -4.44164130627  -11.03942897843
Ti   -3.25401610555   11.84437302349   -1.42716202606
Ti    3.25402319191   11.84437302349   -1.42716202606
Ti    3.25402319191  -11.84437526421   -1.42716202606
Ti   -3.25401610555  -11.84437526421   -1.42716202606
Ti    9.76205587721   -0.00000100232   -7.78540932970
Ti   -9.76206201519   -0.00000100232   -7.78540932970
Ti   -0.00000306899    5.92218606960  -11.03942897843
Ti   -0.00000306899   -5.92218807425  -11.03942897843
Ti   -6.50804236645    7.40273283758   -7.78540932970
Ti    6.50803622848    7.40273283758   -7.78540932970
Ti    6.50803622848   -7.40273484223   -7.78540932970
Ti   -6.50804236645   -7.40273484223   -7.78540932970
Ti   -0.00005220374   11.84437343371   -4.41288396045
Ti   -0.00005220374  -11.84437485399   -4.41288396045
Ti    6.50803622848   -0.00000100232  -11.03942897843
Ti   -6.50804236645   -0.00000100232  -11.03942897843
Ti   -9.76206201519    2.96109253364   -7.78540932970
Ti    9.76205587721    2.96109253364   -7.78540932970
Ti    9.76205587721   -2.96109453828   -7.78540932970
Ti   -9.76206201519   -2.96109453828   -7.78540932970
Ti   -0.00000306899   10.36382637355   -7.78540932970
Ti   -0.00000306899  -10.36382837819   -7.78540932970
Ti    9.76199144908    7.40273240730   -4.59991327640
Ti    9.76199125328   -7.40273429615   -4.59991284715
Ti   -9.76212644332    7.40273240730   -4.59991327640
Ti   -9.76212663912   -7.40273429615   -4.59991284715
Ti  -13.01607322496    1.48055149700   -1.06892606631
Ti   13.01608396490    1.48055149700   -1.06892606631
Ti   13.01608411594   -1.48055312386   -1.06892138720
Ti  -13.01607307392   -1.48055312386   -1.06892138720
Ti   -6.50804236645    2.96109253364  -11.03942897843
Ti    6.50803622848    2.96109253364  -11.03942897843
Ti    6.50803622848   -2.96109453828  -11.03942897843
Ti   -6.50804236645   -2.96109453828  -11.03942897843
Ti   -9.76205598036    8.88328009748   -1.42716235830
Ti    9.76206191204    8.88328009748   -1.42716235830
Ti    9.76206191204   -8.88328111830   -1.42716235830
Ti   -9.76205598036   -8.88328111830   -1.42716235830
Ti    0.00000536997   13.32492564085   -1.06892606631
Ti    0.00000552101  -13.32492726771   -1.06892138720
Ti   -3.25402271772    7.40273283758  -11.03942897843
Ti    3.25401657974    7.40273283758  -11.03942897843
Ti    3.25401657974   -7.40273484223  -11.03942897843
Ti   -3.25402271772   -7.40273484223  -11.03942897843
Ti   13.01602639119   -0.00000071014   -4.41288396045
Ti  -13.01613079868   -0.00000071014   -4.41288396045
Ti  -13.01607307392    4.44163394806   -1.06892138720
Ti   13.01608411594    4.44163394806   -1.06892138720
Ti   13.01608396490   -4.44163557493   -1.06892606631
Ti  -13.01607322496   -4.44163557493   -1.06892606631
Ti   -9.76206201519    5.92218606960   -7.78540932970
Ti    9.76205587721    5.92218606960   -7.78540932970
Ti    9.76205587721   -5.92218807425   -7.78540932970
Ti   -9.76206201519   -5.92218807425   -7.78540932970
Ti   13.01602653134    2.96109301637   -4.41288206312
Ti   13.01602653134   -2.96109405556   -4.41288206312
Ti  -13.01613065852    2.96109301637   -4.41288206312
Ti  -13.01613065852   -2.96109405556   -4.41288206312
Ti   -6.50804236645    5.92218606960  -11.03942897843
Ti    6.50803622848    5.92218606960  -11.03942897843
Ti    6.50803622848   -5.92218807425  -11.03942897843
Ti   -6.50804236645   -5.92218807425  -11.03942897843
Ti   -0.00000306899    8.88327960557  -11.03942897843
Ti   -0.00000306899   -8.88328161021  -11.03942897843
Ti   -6.50809150121   11.84437343371   -4.41288396045
Ti    6.50798709372   11.84437343371   -4.41288396045
Ti    6.50798709372  -11.84437485399   -4.41288396045
Ti   -6.50809150121  -11.84437485399   -4.41288396045
Ti   -3.25408714585   13.32491947923   -4.59991327640
Ti    3.25395215162   13.32491947923   -4.59991327640
Ti    3.25395195581  -13.32492136807   -4.59991284715
Ti   -3.25408734165  -13.32492136807   -4.59991284715
Ti   -6.50804236645   10.36382637355   -7.78540932970
Ti    6.50803622848   10.36382637355   -7.78540932970
Ti    6.50803622848  -10.36382837819   -7.78540932970
Ti   -6.50804236645  -10.36382837819   -7.78540932970
Ti   -3.25402271772   11.84437314153   -7.78540932970
Ti    3.25401657974   11.84437314153   -7.78540932970
Ti    3.25401657974  -11.84437514617   -7.78540932970
Ti   -3.25402271772  -11.84437514617   -7.78540932970
Ti   -6.50803392749   13.32492564085   -1.06892606631
Ti    6.50804466744   13.32492564085   -1.06892606631
Ti    6.50804481848  -13.32492726771   -1.06892138720
Ti   -6.50803377645  -13.32492726771   -1.06892138720
Ti    9.76199125328   10.36382691963   -4.59991284715
Ti    9.76199144908  -10.36382880847   -4.59991327640
Ti   -9.76212663912   10.36382691963   -4.59991284715
Ti   -9.76212644332  -10.36382880847   -4.59991327640
Ti   -9.76205540302   11.84437302349   -1.42716202606
Ti    9.76206248938   11.84437302349   -1.42716202606
Ti    9.76206248938  -11.84437526421   -1.42716202606
Ti   -9.76205540302  -11.84437526421   -1.42716202606
Ti   -0.00000306899   13.32491990951   -7.78540932970
Ti   -0.00000306899  -13.32492191415   -7.78540932970
Ti   -3.25402271772   10.36382637355  -11.03942897843
Ti    3.25401657974   10.36382637355  -11.03942897843
Ti    3.25401657974  -10.36382837819  -11.03942897843
Ti   -3.25402271772  -10.36382837819  -11.03942897843
Ti   -6.50804236645    8.88327960557  -11.03942897843
Ti    6.50803622848    8.88327960557  -11.03942897843
Ti    6.50803622848   -8.88328161021  -11.03942897843
Ti   -6.50804236645   -8.88328161021  -11.03942897843

qmmm=Amber
pointcharges
12867
      0.00000536997    7.40273856892   -1.06892606631    4.00000000000
      0.00000552101   -7.40274019579   -1.06892138720    4.00000000000
      6.50798709372   -0.00000071014   -4.41288396045    4.00000000000
     -6.50809150121   -0.00000071014   -4.41288396045    4.00000000000
     -0.00000306899    1.48054576566   -7.78540932970    4.00000000000
     -0.00000306899   -1.48054777030   -7.78540932970    4.00000000000
     -6.50803377645    4.44163394806   -1.06892138720    4.00000000000
      6.50804481848    4.44163394806   -1.06892138720    4.00000000000
      6.50804466744   -4.44163557493   -1.06892606631    4.00000000000
     -6.50803392749   -4.44163557493   -1.06892606631    4.00000000000
     -1.98193128755    1.48054576566   -7.78540932970   -2.00000000000
      1.98192514957    1.48054576566   -7.78540932970   -2.00000000000
      1.98192514957   -1.48054777030   -7.78540932970   -2.00000000000
     -1.98193128755   -1.48054777030   -7.78540932970   -2.00000000000
      6.50798723387    2.96109301637   -4.41288206312    4.00000000000
      6.50798723387   -2.96109405556   -4.41288206312    4.00000000000
     -6.50809136106    2.96109301637   -4.41288206312    4.00000000000
     -6.50809136106   -2.96109405556   -4.41288206312    4.00000000000
      3.25401657974   -0.00000100232   -7.78540932970    4.00000000000
     -3.25402271772   -0.00000100232   -7.78540932970    4.00000000000
     -6.50803929747    5.92218707193    0.00000000000   -2.00000000000
      6.50803929747    5.92218707193    0.00000000000   -2.00000000000
      6.50803929747   -5.92218707193    0.00000000000   -2.00000000000
     -6.50803929747   -5.92218707193    0.00000000000   -2.00000000000
     -0.00000037752    8.88327862225   -0.00000271770   -2.00000000000
     -0.00000037752   -8.88328259352   -0.00000271770   -2.00000000000
     -3.25402271772    2.96109253364   -7.78540932970    4.00000000000
      3.25401657974    2.96109253364   -7.78540932970    4.00000000000
      3.25401657974   -2.96109453828   -7.78540932970    4.00000000000
     -3.25402271772   -2.96109453828   -7.78540932970    4.00000000000
     -0.00000306899    4.44163930162   -7.78540932970    4.00000000000
     -0.00000306899   -4.44164130627   -7.78540932970    4.00000000000
     -0.00000306899   -0.00000100232   -9.05750075987   -2.00000000000
     -4.52611414790    1.48054576566   -7.78540932970   -2.00000000000
      4.52610800992    1.48054576566   -7.78540932970   -2.00000000000
      4.52610800992   -1.48054777030   -7.78540932970   -2.00000000000
     -4.52611414790   -1.48054777030   -7.78540932970   -2.00000000000
     -7.80910734197    1.48054600613   -4.51644966155   -2.00000000000
      7.80913033182    1.48054591013   -4.51645509582   -2.00000000000
      7.80913025419   -1.48054821213   -4.51645492343   -2.00000000000
     -7.80910728680   -1.48054805070   -4.51644946585   -2.00000000000
     -6.50803487351    5.92218595207   -2.54840301833   -2.00000000000
      6.50804372142    5.92218595207   -2.54840301833   -2.00000000000
      6.50804372142   -5.92218819178   -2.54840301833   -2.00000000000
     -6.50803487351   -5.92218819178   -2.54840301833   -2.00000000000
     -1.98193128755    4.44163930162   -7.78540932970   -2.00000000000
      1.98192514957    4.44163930162   -7.78540932970   -2.00000000000
      1.98192514957   -4.44164130627   -7.78540932970   -2.00000000000
     -1.98193128755   -4.44164130627   -7.78540932970   -2.00000000000
      6.50803622848   -0.00000100232   -6.51331789952   -2.00000000000
     -6.50804236645   -0.00000100232   -6.51331789952   -2.00000000000
      0.00000449994    8.88327906392   -2.54840438198   -2.00000000000
      0.00000449994   -8.88328215185   -2.54840438198   -2.00000000000
     -3.25408714585    7.40273240730   -4.59991327640    4.00000000000
      3.25395215162    7.40273240730   -4.59991327640    4.00000000000
      3.25395195581   -7.40273429615   -4.59991284715    4.00000000000
     -3.25408734165   -7.40273429615   -4.59991284715    4.00000000000
     -0.00000306899    2.96109253364   -9.05750075987   -2.00000000000
     -0.00000306899   -2.96109453828   -9.05750075987   -2.00000000000
     -3.25401668289    8.88328009748   -1.42716235830    4.00000000000
      3.25402261457    8.88328009748   -1.42716235830    4.00000000000
      3.25402261457   -8.88328111830   -1.42716235830    4.00000000000
     -3.25401668289   -8.88328111830   -1.42716235830    4.00000000000
     -6.50804236645    2.96109253364   -6.51331789952   -2.00000000000
      6.50803622848    2.96109253364   -6.51331789952   -2.00000000000
      6.50803622848   -2.96109453828   -6.51331789952   -2.00000000000
     -6.50804236645   -2.96109453828   -6.51331789952   -2.00000000000
     -8.54329837208    4.44163984526   -1.11149503385   -2.00000000000
      8.54330400764    4.44164007096   -1.11149295951   -2.00000000000
      8.54330464500   -4.44164179257   -1.11149163807   -2.00000000000
     -8.54329843894   -4.44164188827   -1.11149385695   -2.00000000000
      6.50798709372    5.92218636178   -4.41288396045    4.00000000000
      6.50798709372   -5.92218778207   -4.41288396045    4.00000000000
     -6.50809150121    5.92218636178   -4.41288396045    4.00000000000
     -6.50809150121   -5.92218778207   -4.41288396045    4.00000000000
      9.76206248938   -0.00000112036   -1.42716202606    4.00000000000
     -9.76205540302   -0.00000112036   -1.42716202606    4.00000000000
     -6.50803392749    7.40273856892   -1.06892606631    4.00000000000
      6.50804466744    7.40273856892   -1.06892606631    4.00000000000
      6.50804481848   -7.40274019579   -1.06892138720    4.00000000000
     -6.50803377645   -7.40274019579   -1.06892138720    4.00000000000
     -0.00005206359    8.88328008829   -4.41288206312    4.00000000000
     -0.00005206359   -8.88328112748   -4.41288206312    4.00000000000
     -3.25401306857    8.88327917115   -3.23990596489   -2.00000000000
      3.25402622890    8.88327917115   -3.23990596489   -2.00000000000
      3.25402622890   -8.88328204462   -3.23990596489   -2.00000000000
     -3.25401306857   -8.88328204462   -3.23990596489   -2.00000000000
     -4.52611414790    4.44163930162   -7.78540932970   -2.00000000000
      4.52610800992    4.44163930162   -7.78540932970   -2.00000000000
      4.52610800992   -4.44164130627   -7.78540932970   -2.00000000000
     -4.52611414790   -4.44164130627   -7.78540932970   -2.00000000000
     -7.80910728680    4.44163902122   -4.51644946585   -2.00000000000
      7.80913025419    4.44163885980   -4.51645492343   -2.00000000000
      7.80913033182   -4.44164116180   -4.51645509582   -2.00000000000
     -7.80910734197   -4.44164106579   -4.51644966155   -2.00000000000
     -5.20694826311    7.40273298205   -4.51645509582   -2.00000000000
      5.20697125296    7.40273307806   -4.51644966155   -2.00000000000
      5.20697130813   -7.40273512263   -4.51644946585   -2.00000000000
     -5.20694834074   -7.40273528405   -4.51645492343   -2.00000000000
     -6.50804236645    1.48054576566   -7.78540932970    4.00000000000
      6.50803622848    1.48054576566   -7.78540932970    4.00000000000
      6.50803622848   -1.48054777030   -7.78540932970    4.00000000000
     -6.50804236645   -1.48054777030   -7.78540932970    4.00000000000
      9.76206533176   -0.00000063665   -3.23990501486   -2.00000000000
     -9.76205256063   -0.00000063665   -3.23990501486   -2.00000000000
      3.25401657974   -0.00000100232   -9.76733754826   -2.00000000000
     -3.25402271772   -0.00000100232   -9.76733754826   -2.00000000000
     -9.76205598036    2.96109302555   -1.42716235830    4.00000000000
      9.76206191204    2.96109302555   -1.42716235830    4.00000000000
      9.76206191204   -2.96109404638   -1.42716235830    4.00000000000
     -9.76205598036   -2.96109404638   -1.42716235830    4.00000000000
     -3.25402271772    5.92218606960   -7.78540932970    4.00000000000
      3.25401657974    5.92218606960   -7.78540932970    4.00000000000
      3.25401657974   -5.92218807425   -7.78540932970    4.00000000000
     -3.25402271772   -5.92218807425   -7.78540932970    4.00000000000
      0.00000552101   10.36382101999   -1.06892138720    4.00000000000
      0.00000536997  -10.36382264685   -1.06892606631    4.00000000000
     -2.03525907462   10.36382691719   -1.11149503385   -2.00000000000
      2.03526471018   10.36382714288   -1.11149295951   -2.00000000000
      2.03526534753  -10.36382886450   -1.11149163807   -2.00000000000
     -2.03525914147  -10.36382896020   -1.11149385695   -2.00000000000
     -9.76205236604    2.96109209923   -3.23990596489   -2.00000000000
      9.76206552636    2.96109209923   -3.23990596489   -2.00000000000
      9.76206552636   -2.96109497270   -3.23990596489   -2.00000000000
     -9.76205236604   -2.96109497270   -3.23990596489   -2.00000000000
     -3.25402271772    2.96109253364   -9.76733754826   -2.00000000000
      3.25401657974    2.96109253364   -9.76733754826   -2.00000000000
      3.25401657974   -2.96109453828   -9.76733754826   -2.00000000000
     -3.25402271772   -2.96109453828   -9.76733754826   -2.00000000000
     -0.00000306899    7.40273283758   -7.78540932970    4.00000000000
     -0.00000306899   -7.40273484223   -7.78540932970    4.00000000000
     -0.00000306899    5.92218606960   -9.05750075987   -2.00000000000
     -0.00000306899   -5.92218807425   -9.05750075987   -2.00000000000
      9.76199144908    1.48054533538   -4.59991327640    4.00000000000
      9.76199125328   -1.48054722422   -4.59991284715    4.00000000000
     -9.76212644332    1.48054533538   -4.59991327640    4.00000000000
     -9.76212663912   -1.48054722422   -4.59991284715    4.00000000000
     -1.98193128755    7.40273283758   -7.78540932970   -2.00000000000
      1.98192514957    7.40273283758   -7.78540932970   -2.00000000000
      1.98192514957   -7.40273484223   -7.78540932970   -2.00000000000
     -1.98193128755   -7.40273484223   -7.78540932970   -2.00000000000
     -6.50804236645    5.92218606960   -6.51331789952   -2.00000000000
      6.50803622848    5.92218606960   -6.51331789952   -2.00000000000
      6.50803622848   -5.92218807425   -6.51331789952   -2.00000000000
     -6.50804236645   -5.92218807425   -6.51331789952   -2.00000000000
     -6.50803967498    8.88327862225   -0.00000271770   -2.00000000000
      6.50803891995    8.88327862225   -0.00000271770   -2.00000000000
      6.50803891995   -8.88328259352   -0.00000271770   -2.00000000000
     -6.50803967498   -8.88328259352   -0.00000271770   -2.00000000000
     -0.00000306899    8.88327960557   -6.51331789952   -2.00000000000
     -0.00000306899   -8.88328161021   -6.51331789952   -2.00000000000
     -0.00000306899   -0.00000100232  -11.03942897843    4.00000000000
     -6.50804236645    4.44163930162   -7.78540932970    4.00000000000
      6.50803622848    4.44163930162   -7.78540932970    4.00000000000
      6.50803622848   -4.44164130627   -7.78540932970    4.00000000000
     -6.50804236645   -4.44164130627   -7.78540932970    4.00000000000
     -3.25401413420    8.88327982762   -5.78839415273   -2.00000000000
      3.25402516327    8.88327982762   -5.78839415273   -2.00000000000
      3.25402516327   -8.88328138815   -5.78839415273   -2.00000000000
     -3.25401413420   -8.88328138815   -5.78839415273   -2.00000000000
    -10.98081324740    1.48054527935   -1.11149163807   -2.00000000000
     10.98081945346    1.48054518365   -1.11149385695   -2.00000000000
     10.98081952031   -1.48054722666   -1.11149503385   -2.00000000000
    -10.98081388475   -1.48054700097   -1.11149295951   -2.00000000000
      6.50803622848   -0.00000100232   -9.05750075987   -2.00000000000
     -6.50804236645   -0.00000100232   -9.05750075987   -2.00000000000
     -1.27209449916    1.48054576566  -11.03942897843   -2.00000000000
      1.27208836119    1.48054576566  -11.03942897843   -2.00000000000
      1.27208836119   -1.48054777030  -11.03942897843   -2.00000000000
     -1.27209449916   -1.48054777030  -11.03942897843   -2.00000000000
     -6.50803479753    8.88327906392   -2.54840438198   -2.00000000000
      6.50804379741    8.88327906392   -2.54840438198   -2.00000000000
      6.50804379741   -8.88328215185   -2.54840438198   -2.00000000000
     -6.50803479753   -8.88328215185   -2.54840438198   -2.00000000000
     -4.47277458729   10.36382714288   -1.11149295951   -2.00000000000
      4.47278022285   10.36382691719   -1.11149503385   -2.00000000000
      4.47278015600  -10.36382896020   -1.11149385695   -2.00000000000
     -4.47277394994  -10.36382886450   -1.11149163807   -2.00000000000
      9.76206431043   -0.00000107099   -5.78839374873   -2.00000000000
     -9.76205358197   -0.00000107099   -5.78839374873   -2.00000000000
     -8.54329843894    7.40273225558   -1.11149385695   -2.00000000000
      8.54330464500    7.40273235128   -1.11149163807   -2.00000000000
      8.54330400764   -7.40273407290   -1.11149295951   -2.00000000000
     -8.54329837208   -7.40273429859   -1.11149503385   -2.00000000000
     -1.30106798933   10.36382609315   -4.51644946585   -2.00000000000
      1.30109095673   10.36382593172   -4.51645492343   -2.00000000000
      1.30109103436  -10.36382823372   -4.51645509582   -2.00000000000
     -1.30106804451  -10.36382813772   -4.51644966155   -2.00000000000
     -0.00000306899    2.96109253364  -11.03942897843    4.00000000000
     -0.00000306899   -2.96109453828  -11.03942897843    4.00000000000
     -9.76205540302    5.92218595157   -1.42716202606    4.00000000000
      9.76206248938    5.92218595157   -1.42716202606    4.00000000000
      9.76206248938   -5.92218819228   -1.42716202606    4.00000000000
     -9.76205540302   -5.92218819228   -1.42716202606    4.00000000000
     -6.50804236645    2.96109253364   -9.05750075987   -2.00000000000
      6.50803622848    2.96109253364   -9.05750075987   -2.00000000000
      6.50803622848   -2.96109453828   -9.05750075987   -2.00000000000
     -6.50804236645   -2.96109453828   -9.05750075987   -2.00000000000
     -3.25402271772    1.48054576566  -11.03942897843    4.00000000000
      3.25401657974    1.48054576566  -11.03942897843    4.00000000000
      3.25401657974   -1.48054777030  -11.03942897843    4.00000000000
     -3.25402271772   -1.48054777030  -11.03942897843    4.00000000000
     -8.48997058501    1.48054576566   -7.78540932970   -2.00000000000
      8.48996444703    1.48054576566   -7.78540932970   -2.00000000000
      8.48996444703   -1.48054777030   -7.78540932970   -2.00000000000
     -8.48997058501   -1.48054777030   -7.78540932970   -2.00000000000
     -4.52611414790    7.40273283758   -7.78540932970   -2.00000000000
      4.52610800992    7.40273283758   -7.78540932970   -2.00000000000
      4.52610800992   -7.40273484223   -7.78540932970   -2.00000000000
     -4.52611414790   -7.40273484223   -7.78540932970   -2.00000000000
     -7.80910734197    7.40273307806   -4.51644966155   -2.00000000000
      7.80913033182    7.40273298205   -4.51645509582   -2.00000000000
      7.80913025419   -7.40273528405   -4.51645492343   -2.00000000000
     -7.80910728680   -7.40273512263   -4.51644946585   -2.00000000000
      9.76199125328    4.44163984770   -4.59991284715    4.00000000000
      9.76199144908   -4.44164173655   -4.59991327640    4.00000000000
     -9.76212663912    4.44163984770   -4.59991284715    4.00000000000
     -9.76212644332   -4.44164173655   -4.59991327640    4.00000000000
     -9.76205343167    2.96109275570   -5.78839415273   -2.00000000000
      9.76206446073    2.96109275570   -5.78839415273   -2.00000000000
      9.76206446073   -2.96109431623   -5.78839415273   -2.00000000000
     -9.76205343167   -2.96109431623   -5.78839415273   -2.00000000000
     -3.25408734165   10.36382691963   -4.59991284715    4.00000000000
      3.25395195581   10.36382691963   -4.59991284715    4.00000000000
      3.25395215162  -10.36382880847   -4.59991327640    4.00000000000
     -3.25408714585  -10.36382880847   -4.59991327640    4.00000000000
      0.00000000000   11.84437414385    0.00000000000   -2.00000000000
      0.00000000000  -11.84437414385    0.00000000000   -2.00000000000
      6.50798723387    8.88328008829   -4.41288206312    4.00000000000
      6.50798723387   -8.88328112748   -4.41288206312    4.00000000000
     -6.50809136106    8.88328008829   -4.41288206312    4.00000000000
     -6.50809136106   -8.88328112748   -4.41288206312    4.00000000000
     -9.76205256063    5.92218643528   -3.23990501486   -2.00000000000
      9.76206533176    5.92218643528   -3.23990501486   -2.00000000000
      9.76206533176   -5.92218770857   -3.23990501486   -2.00000000000
     -9.76205256063   -5.92218770857   -3.23990501486   -2.00000000000
     -3.25402271772    5.92218606960   -9.76733754826   -2.00000000000
      3.25401657974    5.92218606960   -9.76733754826   -2.00000000000
      3.25401657974   -5.92218807425   -9.76733754826   -2.00000000000
     -3.25402271772   -5.92218807425   -9.76733754826   -2.00000000000
    -10.98081388475    4.44164007096   -1.11149295951   -2.00000000000
     10.98081952031    4.44163984526   -1.11149503385   -2.00000000000
     10.98081945346   -4.44164188827   -1.11149385695   -2.00000000000
    -10.98081324740   -4.44164179257   -1.11149163807   -2.00000000000
     -1.27209449916    4.44163930162  -11.03942897843   -2.00000000000
      1.27208836119    4.44163930162  -11.03942897843   -2.00000000000
      1.27208836119   -4.44164130627  -11.03942897843   -2.00000000000
     -1.27209449916   -4.44164130627  -11.03942897843   -2.00000000000
      0.00000442396   11.84437302399   -2.54840301833   -2.00000000000
      0.00000442396  -11.84437526371   -2.54840301833   -2.00000000000
     -3.25402271772    8.88327960557   -7.78540932970    4.00000000000
      3.25401657974    8.88327960557   -7.78540932970    4.00000000000
      3.25401657974   -8.88328161021   -7.78540932970    4.00000000000
     -3.25402271772   -8.88328161021   -7.78540932970    4.00000000000
     -6.50803377645   10.36382101999   -1.06892138720    4.00000000000
      6.50804481848   10.36382101999   -1.06892138720    4.00000000000
      6.50804466744  -10.36382264685   -1.06892606631    4.00000000000
     -6.50803392749  -10.36382264685   -1.06892606631    4.00000000000
     -5.23595093628    1.48054576566  -11.03942897843   -2.00000000000
      5.23594479830    1.48054576566  -11.03942897843   -2.00000000000
      5.23594479830   -1.48054777030  -11.03942897843   -2.00000000000
     -5.23595093628   -1.48054777030  -11.03942897843   -2.00000000000
     -3.25402271772    4.44163930162  -11.03942897843    4.00000000000
      3.25401657974    4.44163930162  -11.03942897843    4.00000000000
      3.25401657974   -4.44164130627  -11.03942897843    4.00000000000
     -3.25402271772   -4.44164130627  -11.03942897843    4.00000000000
     -8.48997058501    4.44163930162   -7.78540932970   -2.00000000000
      8.48996444703    4.44163930162   -7.78540932970   -2.00000000000
      8.48996444703   -4.44164130627   -7.78540932970   -2.00000000000
     -8.48997058501   -4.44164130627   -7.78540932970   -2.00000000000
     -3.25401610555   11.84437302349   -1.42716202606    4.00000000000
      3.25402319191   11.84437302349   -1.42716202606    4.00000000000
      3.25402319191  -11.84437526421   -1.42716202606    4.00000000000
     -3.25401610555  -11.84437526421   -1.42716202606    4.00000000000
     -5.20694834074   10.36382593172   -4.51645492343   -2.00000000000
      5.20697130813   10.36382609315   -4.51644946585   -2.00000000000
      5.20697125296  -10.36382813772   -4.51644966155   -2.00000000000
     -5.20694826311  -10.36382823372   -4.51645509582   -2.00000000000
      9.76205587721   -0.00000100232   -7.78540932970    4.00000000000
     -9.76206201519   -0.00000100232   -7.78540932970    4.00000000000
     -0.00000306899    5.92218606960  -11.03942897843    4.00000000000
     -0.00000306899   -5.92218807425  -11.03942897843    4.00000000000
     -6.50804236645    7.40273283758   -7.78540932970    4.00000000000
      6.50803622848    7.40273283758   -7.78540932970    4.00000000000
      6.50803622848   -7.40273484223   -7.78540932970    4.00000000000
     -6.50804236645   -7.40273484223   -7.78540932970    4.00000000000
     -6.50804236645    5.92218606960   -9.05750075987   -2.00000000000
      6.50803622848    5.92218606960   -9.05750075987   -2.00000000000
      6.50803622848   -5.92218807425   -9.05750075987   -2.00000000000
     -6.50804236645   -5.92218807425   -9.05750075987   -2.00000000000
     -0.00005220374   11.84437343371   -4.41288396045    4.00000000000
     -0.00005220374  -11.84437485399   -4.41288396045    4.00000000000
    -11.71498756057    1.48054591013   -4.51645509582   -2.00000000000
     11.71501055042    1.48054600613   -4.51644966155   -2.00000000000
     11.71501060560   -1.48054805070   -4.51644946585   -2.00000000000
    -11.71498763820   -1.48054821213   -4.51645492343   -2.00000000000
     -0.00000306899    8.88327960557   -9.05750075987   -2.00000000000
     -0.00000306899   -8.88328161021   -9.05750075987   -2.00000000000
     -3.25401326317   11.84437350720   -3.23990501486   -2.00000000000
      3.25402603430   11.84437350720   -3.23990501486   -2.00000000000
      3.25402603430  -11.84437478050   -3.23990501486   -2.00000000000
     -3.25401326317  -11.84437478050   -3.23990501486   -2.00000000000
      3.25401657974   -0.00000100232  -12.31152040860   -2.00000000000
     -3.25402271772   -0.00000100232  -12.31152040860   -2.00000000000
     -6.50804236645    8.88327960557   -6.51331789952   -2.00000000000
      6.50803622848    8.88327960557   -6.51331789952   -2.00000000000
      6.50803622848   -8.88328161021   -6.51331789952   -2.00000000000
     -6.50804236645   -8.88328161021   -6.51331789952   -2.00000000000
     -9.76205358197    5.92218600093   -5.78839374873   -2.00000000000
      9.76206431043    5.92218600093   -5.78839374873   -2.00000000000
      9.76206431043   -5.92218814292   -5.78839374873   -2.00000000000
     -9.76205358197   -5.92218814292   -5.78839374873   -2.00000000000
      6.50803622848   -0.00000100232  -11.03942897843    4.00000000000
     -6.50804236645   -0.00000100232  -11.03942897843    4.00000000000
     -9.76206201519    2.96109253364   -7.78540932970    4.00000000000
      9.76205587721    2.96109253364   -7.78540932970    4.00000000000
      9.76205587721   -2.96109453828   -7.78540932970    4.00000000000
     -9.76206201519   -2.96109453828   -7.78540932970    4.00000000000
     -0.00000306899   10.36382637355   -7.78540932970    4.00000000000
     -0.00000306899  -10.36382837819   -7.78540932970    4.00000000000
     -5.23595093628    4.44163930162  -11.03942897843   -2.00000000000
      5.23594479830    4.44163930162  -11.03942897843   -2.00000000000
      5.23594479830   -4.44164130627  -11.03942897843   -2.00000000000
     -5.23595093628   -4.44164130627  -11.03942897843   -2.00000000000
    -13.01607859493    0.00000000000    0.00000000000   -2.00000000000
     13.01607859493    0.00000000000    0.00000000000   -2.00000000000
     -0.00000306899   -0.00000100232  -13.02135719699   -2.00000000000
     -3.25402271772    2.96109253364  -12.31152040860   -2.00000000000
      3.25401657974    2.96109253364  -12.31152040860   -2.00000000000
      3.25401657974   -2.96109453828  -12.31152040860   -2.00000000000
     -3.25402271772   -2.96109453828  -12.31152040860   -2.00000000000
      9.76199144908    7.40273240730   -4.59991327640    4.00000000000
      9.76199125328   -7.40273429615   -4.59991284715    4.00000000000
     -9.76212644332    7.40273240730   -4.59991327640    4.00000000000
     -9.76212663912   -7.40273429615   -4.59991284715    4.00000000000
     -1.98193128755   10.36382637355   -7.78540932970   -2.00000000000
      1.98192514957   10.36382637355   -7.78540932970   -2.00000000000
      1.98192514957  -10.36382837819   -7.78540932970   -2.00000000000
     -1.98193128755  -10.36382837819   -7.78540932970   -2.00000000000
    -13.01607322496    1.48055149700   -1.06892606631    4.00000000000
     13.01608396490    1.48055149700   -1.06892606631    4.00000000000
     13.01608411594   -1.48055312386   -1.06892138720    4.00000000000
    -13.01607307392   -1.48055312386   -1.06892138720    4.00000000000
     -6.50804236645    2.96109253364  -11.03942897843    4.00000000000
      6.50803622848    2.96109253364  -11.03942897843    4.00000000000
      6.50803622848   -2.96109453828  -11.03942897843    4.00000000000
     -6.50804236645   -2.96109453828  -11.03942897843    4.00000000000
     13.01608301889   -0.00000111986   -2.54840301833   -2.00000000000
    -13.01607417097   -0.00000111986   -2.54840301833   -2.00000000000
     -9.76205598036    8.88328009748   -1.42716235830    4.00000000000
      9.76206191204    8.88328009748   -1.42716235830    4.00000000000
      9.76206191204   -8.88328111830   -1.42716235830    4.00000000000
     -9.76205598036   -8.88328111830   -1.42716235830    4.00000000000
    -10.98081324740    7.40273235128   -1.11149163807   -2.00000000000
     10.98081945346    7.40273225558   -1.11149385695   -2.00000000000
     10.98081952031   -7.40273429859   -1.11149503385   -2.00000000000
    -10.98081388475   -7.40273407290   -1.11149295951   -2.00000000000
    -11.71498763820    4.44163885980   -4.51645492343   -2.00000000000
     11.71501060560    4.44163902122   -4.51644946585   -2.00000000000
     11.71501055042   -4.44164106579   -4.51644966155   -2.00000000000
    -11.71498756057   -4.44164116180   -4.51645509582   -2.00000000000
    -13.01607897245    2.96109155033   -0.00000271770   -2.00000000000
     13.01607821741    2.96109155033   -0.00000271770   -2.00000000000
     13.01607821741   -2.96109552160   -0.00000271770   -2.00000000000
    -13.01607897245   -2.96109552160   -0.00000271770   -2.00000000000
     -1.27209449916    7.40273283758  -11.03942897843   -2.00000000000
      1.27208836119    7.40273283758  -11.03942897843   -2.00000000000
      1.27208836119   -7.40273484223  -11.03942897843   -2.00000000000
     -1.27209449916   -7.40273484223  -11.03942897843   -2.00000000000
     -0.00000306899    2.96109253364  -13.02135719699   -2.00000000000
     -0.00000306899   -2.96109453828  -13.02135719699   -2.00000000000
      0.00000536997   13.32492564085   -1.06892606631    4.00000000000
      0.00000552101  -13.32492726771   -1.06892138720    4.00000000000
     -8.54329837208   10.36382691719   -1.11149503385   -2.00000000000
      8.54330400764   10.36382714288   -1.11149295951   -2.00000000000
      8.54330464500  -10.36382886450   -1.11149163807   -2.00000000000
     -8.54329843894  -10.36382896020   -1.11149385695   -2.00000000000
     -6.50803929747   11.84437414385    0.00000000000   -2.00000000000
      6.50803929747   11.84437414385    0.00000000000   -2.00000000000
      6.50803929747  -11.84437414385    0.00000000000   -2.00000000000
     -6.50803929747  -11.84437414385    0.00000000000   -2.00000000000
     -0.00000306899   11.84437314153   -6.51331789952   -2.00000000000
     -0.00000306899  -11.84437514617   -6.51331789952   -2.00000000000
     -2.03525914147   13.32491932750   -1.11149385695   -2.00000000000
      2.03526534753   13.32491942320   -1.11149163807   -2.00000000000
      2.03526471018  -13.32492114482   -1.11149295951   -2.00000000000
     -2.03525907462  -13.32492137051   -1.11149503385   -2.00000000000
     -3.25401428450   11.84437307286   -5.78839374873   -2.00000000000
      3.25402501297   11.84437307286   -5.78839374873   -2.00000000000
      3.25402501297  -11.84437521484   -5.78839374873   -2.00000000000
     -3.25401428450  -11.84437521484   -5.78839374873   -2.00000000000
    -11.03415344536    1.48054576566   -7.78540932970   -2.00000000000
     11.03414730738    1.48054576566   -7.78540932970   -2.00000000000
     11.03414730738   -1.48054777030   -7.78540932970   -2.00000000000
    -11.03415344536   -1.48054777030   -7.78540932970   -2.00000000000
    -13.01607409499    2.96109199200   -2.54840438198   -2.00000000000
     13.01608309487    2.96109199200   -2.54840438198   -2.00000000000
     13.01608309487   -2.96109507993   -2.54840438198   -2.00000000000
    -13.01607409499   -2.96109507993   -2.54840438198   -2.00000000000
     -9.76205236604    8.88327917115   -3.23990596489   -2.00000000000
      9.76206552636    8.88327917115   -3.23990596489   -2.00000000000
      9.76206552636   -8.88328204462   -3.23990596489   -2.00000000000
     -9.76205236604   -8.88328204462   -3.23990596489   -2.00000000000
     -3.25402271772    8.88327960557   -9.76733754826   -2.00000000000
      3.25401657974    8.88327960557   -9.76733754826   -2.00000000000
      3.25401657974   -8.88328161021   -9.76733754826   -2.00000000000
     -3.25402271772   -8.88328161021   -9.76733754826   -2.00000000000
     -3.25402271772    7.40273283758  -11.03942897843    4.00000000000
      3.25401657974    7.40273283758  -11.03942897843    4.00000000000
      3.25401657974   -7.40273484223  -11.03942897843    4.00000000000
     -3.25402271772   -7.40273484223  -11.03942897843    4.00000000000
     -8.48997058501    7.40273283758   -7.78540932970   -2.00000000000
      8.48996444703    7.40273283758   -7.78540932970   -2.00000000000
      8.48996444703   -7.40273484223   -7.78540932970   -2.00000000000
     -8.48997058501   -7.40273484223   -7.78540932970   -2.00000000000
     -4.52611414790   10.36382637355   -7.78540932970   -2.00000000000
      4.52610800992   10.36382637355   -7.78540932970   -2.00000000000
      4.52610800992  -10.36382837819   -7.78540932970   -2.00000000000
     -4.52611414790  -10.36382837819   -7.78540932970   -2.00000000000
     -7.80910728680   10.36382609315   -4.51644946585   -2.00000000000
      7.80913025419   10.36382593172   -4.51645492343   -2.00000000000
      7.80913033182  -10.36382823372   -4.51645509582   -2.00000000000
     -7.80910734197  -10.36382813772   -4.51644966155   -2.00000000000
     13.01602639119   -0.00000071014   -4.41288396045    4.00000000000
    -13.01613079868   -0.00000071014   -4.41288396045    4.00000000000
     -6.50803487351   11.84437302399   -2.54840301833   -2.00000000000
      6.50804372142   11.84437302399   -2.54840301833   -2.00000000000
      6.50804372142  -11.84437526371   -2.54840301833   -2.00000000000
     -6.50803487351  -11.84437526371   -2.54840301833   -2.00000000000
    -13.01607307392    4.44163394806   -1.06892138720    4.00000000000
     13.01608411594    4.44163394806   -1.06892138720    4.00000000000
     13.01608396490   -4.44163557493   -1.06892606631    4.00000000000
    -13.01607322496   -4.44163557493   -1.06892606631    4.00000000000
     -9.76206201519    5.92218606960   -7.78540932970    4.00000000000
      9.76205587721    5.92218606960   -7.78540932970    4.00000000000
      9.76205587721   -5.92218807425   -7.78540932970    4.00000000000
     -9.76206201519   -5.92218807425   -7.78540932970    4.00000000000
     -3.25402271772    5.92218606960  -12.31152040860   -2.00000000000
      3.25401657974    5.92218606960  -12.31152040860   -2.00000000000
      3.25401657974   -5.92218807425  -12.31152040860   -2.00000000000
     -3.25402271772   -5.92218807425  -12.31152040860   -2.00000000000
     13.01602653134    2.96109301637   -4.41288206312    4.00000000000
     13.01602653134   -2.96109405556   -4.41288206312    4.00000000000
    -13.01613065852    2.96109301637   -4.41288206312    4.00000000000
    -13.01613065852   -2.96109405556   -4.41288206312    4.00000000000
     -4.47277394994   13.32491942320   -1.11149163807   -2.00000000000
      4.47278015600   13.32491932750   -1.11149385695   -2.00000000000
      4.47278022285  -13.32492137051   -1.11149503385   -2.00000000000
     -4.47277458729  -13.32492114482   -1.11149295951   -2.00000000000
     -6.50804236645    5.92218606960  -11.03942897843    4.00000000000
      6.50803622848    5.92218606960  -11.03942897843    4.00000000000
      6.50803622848   -5.92218807425  -11.03942897843    4.00000000000
     -6.50804236645   -5.92218807425  -11.03942897843    4.00000000000
     -1.30106804451   13.32492014998   -4.51644966155   -2.00000000000
      1.30109103436   13.32492005398   -4.51645509582   -2.00000000000
      1.30109095673  -13.32492235598   -4.51645492343   -2.00000000000
     -1.30106798933  -13.32492219455   -4.51644946585   -2.00000000000
     -0.00000306899    8.88327960557  -11.03942897843    4.00000000000
     -0.00000306899   -8.88328161021  -11.03942897843    4.00000000000
    -11.03415344536    4.44163930162   -7.78540932970   -2.00000000000
     11.03414730738    4.44163930162   -7.78540932970   -2.00000000000
     11.03414730738   -4.44164130627   -7.78540932970   -2.00000000000
    -11.03415344536   -4.44164130627   -7.78540932970   -2.00000000000
     -6.50809150121   11.84437343371   -4.41288396045    4.00000000000
      6.50798709372   11.84437343371   -4.41288396045    4.00000000000
      6.50798709372  -11.84437485399   -4.41288396045    4.00000000000
     -6.50809150121  -11.84437485399   -4.41288396045    4.00000000000
     -6.50804236645    8.88327960557   -9.05750075987   -2.00000000000
      6.50803622848    8.88327960557   -9.05750075987   -2.00000000000
      6.50803622848   -8.88328161021   -9.05750075987   -2.00000000000
     -6.50804236645   -8.88328161021   -9.05750075987   -2.00000000000
     -5.23595093628    7.40273283758  -11.03942897843   -2.00000000000
      5.23594479830    7.40273283758  -11.03942897843   -2.00000000000
      5.23594479830   -7.40273484223  -11.03942897843   -2.00000000000
     -5.23595093628   -7.40273484223  -11.03942897843   -2.00000000000
    -13.01607859493    5.92218707193    0.00000000000   -2.00000000000
     13.01607859493    5.92218707193    0.00000000000   -2.00000000000
     13.01607859493   -5.92218707193    0.00000000000   -2.00000000000
    -13.01607859493   -5.92218707193    0.00000000000   -2.00000000000
     -0.00000306899    5.92218606960  -13.02135719699   -2.00000000000
     -0.00000306899   -5.92218807425  -13.02135719699   -2.00000000000
     -9.76205343167    8.88327982762   -5.78839415273   -2.00000000000
      9.76206446073    8.88327982762   -5.78839415273   -2.00000000000
      9.76206446073   -8.88328138815   -5.78839415273   -2.00000000000
     -9.76205343167   -8.88328138815   -5.78839415273   -2.00000000000
     -3.25408714585   13.32491947923   -4.59991327640    4.00000000000
      3.25395215162   13.32491947923   -4.59991327640    4.00000000000
      3.25395195581  -13.32492136807   -4.59991284715    4.00000000000
     -3.25408734165  -13.32492136807   -4.59991284715    4.00000000000
     -6.50804236645   10.36382637355   -7.78540932970    4.00000000000
      6.50803622848   10.36382637355   -7.78540932970    4.00000000000
      6.50803622848  -10.36382837819   -7.78540932970    4.00000000000
     -6.50804236645  -10.36382837819   -7.78540932970    4.00000000000
    -13.01607417097    5.92218595207   -2.54840301833   -2.00000000000
     13.01608301889    5.92218595207   -2.54840301833   -2.00000000000
     13.01608301889   -5.92218819178   -2.54840301833   -2.00000000000
    -13.01607417097   -5.92218819178   -2.54840301833   -2.00000000000
     -3.25402271772   11.84437314153   -7.78540932970    4.00000000000
      3.25401657974   11.84437314153   -7.78540932970    4.00000000000
      3.25401657974  -11.84437514617   -7.78540932970    4.00000000000
     -3.25402271772  -11.84437514617   -7.78540932970    4.00000000000
     -6.50803392749   13.32492564085   -1.06892606631    4.00000000000
      6.50804466744   13.32492564085   -1.06892606631    4.00000000000
      6.50804481848  -13.32492726771   -1.06892138720    4.00000000000
     -6.50803377645  -13.32492726771   -1.06892138720    4.00000000000
     -0.00000306899   11.84437314153   -9.05750075987   -2.00000000000
     -0.00000306899  -11.84437514617   -9.05750075987   -2.00000000000
      9.76199125328   10.36382691963   -4.59991284715    4.00000000000
      9.76199144908  -10.36382880847   -4.59991327640    4.00000000000
     -9.76212663912   10.36382691963   -4.59991284715    4.00000000000
     -9.76212644332  -10.36382880847   -4.59991327640    4.00000000000
     -5.20694826311   13.32492005398   -4.51645509582   -2.00000000000
      5.20697125296   13.32492014998   -4.51644966155   -2.00000000000
      5.20697130813  -13.32492219455   -4.51644946585   -2.00000000000
     -5.20694834074  -13.32492235598   -4.51645492343   -2.00000000000
     -6.50804236645   11.84437314153   -6.51331789952   -2.00000000000
      6.50803622848   11.84437314153   -6.51331789952   -2.00000000000
      6.50803622848  -11.84437514617   -6.51331789952   -2.00000000000
     -6.50804236645  -11.84437514617   -6.51331789952   -2.00000000000
    -14.31714663944    1.48054600613   -4.51644966155   -2.00000000000
     14.31716962929    1.48054591013   -4.51645509582   -2.00000000000
     14.31716955166   -1.48054821213   -4.51645492343   -2.00000000000
    -14.31714658426   -1.48054805070   -4.51644946585   -2.00000000000
    -15.05133773640    1.48054518365   -1.11149385695   -2.00000000000
     15.05134394246    1.48054527935   -1.11149163807   -2.00000000000
     15.05134330511   -1.48054700097   -1.11149295951   -2.00000000000
    -15.05133766955   -1.48054722666   -1.11149503385   -2.00000000000
     -1.27209449916   10.36382637355  -11.03942897843   -2.00000000000
      1.27208836119   10.36382637355  -11.03942897843   -2.00000000000
      1.27208836119  -10.36382837819  -11.03942897843   -2.00000000000
     -1.27209449916  -10.36382837819  -11.03942897843   -2.00000000000
     -9.76205540302   11.84437302349   -1.42716202606    4.00000000000
      9.76206248938   11.84437302349   -1.42716202606    4.00000000000
      9.76206248938  -11.84437526421   -1.42716202606    4.00000000000
     -9.76205540302  -11.84437526421   -1.42716202606    4.00000000000
     -0.00000306899   13.32491990951   -7.78540932970    4.00000000000
     -0.00000306899  -13.32492191415   -7.78540932970    4.00000000000
     -3.25402271772   10.36382637355  -11.03942897843    4.00000000000
      3.25401657974   10.36382637355  -11.03942897843    4.00000000000
      3.25401657974  -10.36382837819  -11.03942897843    4.00000000000
     -3.25402271772  -10.36382837819  -11.03942897843    4.00000000000
     -1.98193128755   13.32491990951   -7.78540932970   -2.00000000000
      1.98192514957   13.32491990951   -7.78540932970   -2.00000000000
      1.98192514957  -13.32492191415   -7.78540932970   -2.00000000000
     -1.98193128755  -13.32492191415   -7.78540932970   -2.00000000000
     -6.50804236645    8.88327960557  -11.03942897843    4.00000000000
      6.50803622848    8.88327960557  -11.03942897843    4.00000000000
      6.50803622848   -8.88328161021  -11.03942897843    4.00000000000
     -6.50804236645   -8.88328161021  -11.03942897843    4.00000000000
     -7.78013379663    1.48054576566  -11.03942897843   -2.00000000000
      7.78012765865    1.48054576566  -11.03942897843   -2.00000000000
      7.78012765865   -1.48054777030  -11.03942897843   -2.00000000000
     -7.78013379663   -1.48054777030  -11.03942897843   -2.00000000000
      9.76205587721   -0.00000100232   -9.76733754826   -2.00000000000
     -9.76206201519   -0.00000100232   -9.76733754826   -2.00000000000
     -9.76206201519    2.96109253364   -9.76733754826   -2.00000000000
      9.76205587721    2.96109253364   -9.76733754826   -2.00000000000
      9.76205587721   -2.96109453828   -9.76733754826   -2.00000000000
     -9.76206201519   -2.96109453828   -9.76733754826   -2.00000000000
     -7.78013379663    4.44163930162  -11.03942897843   -2.00000000000
      7.78012765865    4.44163930162  -11.03942897843   -2.00000000000
      7.78012765865   -4.44164130627  -11.03942897843   -2.00000000000
     -7.78013379663   -4.44164130627  -11.03942897843   -2.00000000000
     -0.00000306899    1.48054576566  -14.29344862716    4.00000000000
     -0.00000306899   -1.48054777030  -14.29344862716    4.00000000000
     -1.98193128755    1.48054576566  -14.29344862716   -2.00000000000
      1.98192514957    1.48054576566  -14.29344862716   -2.00000000000
      1.98192514957   -1.48054777030  -14.29344862716   -2.00000000000
     -1.98193128755   -1.48054777030  -14.29344862716   -2.00000000000
     13.01607552594   -0.00000100232   -6.51331789952   -2.00000000000
    -13.01608166392   -0.00000100232   -6.51331789952   -2.00000000000
      6.50803622848   -0.00000100232  -13.02135719699   -2.00000000000
     -6.50804236645   -0.00000100232  -13.02135719699   -2.00000000000
    -11.71498756057    7.40273298205   -4.51645509582   -2.00000000000
     11.71501055042    7.40273307806   -4.51644966155   -2.00000000000
     11.71501060560   -7.40273512263   -4.51644946585   -2.00000000000
    -11.71498763820   -7.40273528405   -4.51645492343   -2.00000000000
      3.25401657974   -0.00000100232  -14.29344862716    4.00000000000
     -3.25402271772   -0.00000100232  -14.29344862716    4.00000000000
     -0.00000037752   14.80546569418   -0.00000271770   -2.00000000000
     -0.00000037752  -14.80546966545   -0.00000271770   -2.00000000000
     -9.76206201519    1.48054576566  -11.03942897843    4.00000000000
      9.76205587721    1.48054576566  -11.03942897843    4.00000000000
      9.76205587721   -1.48054777030  -11.03942897843    4.00000000000
     -9.76206201519   -1.48054777030  -11.03942897843    4.00000000000
    -13.01608166392    2.96109253364   -6.51331789952   -2.00000000000
     13.01607552594    2.96109253364   -6.51331789952   -2.00000000000
     13.01607552594   -2.96109453828   -6.51331789952   -2.00000000000
    -13.01608166392   -2.96109453828   -6.51331789952   -2.00000000000
     -6.50804236645    2.96109253364  -13.02135719699   -2.00000000000
      6.50803622848    2.96109253364  -13.02135719699   -2.00000000000
      6.50803622848   -2.96109453828  -13.02135719699   -2.00000000000
     -6.50804236645   -2.96109453828  -13.02135719699   -2.00000000000
     -3.25402271772    2.96109253364  -14.29344862716    4.00000000000
      3.25401657974    2.96109253364  -14.29344862716    4.00000000000
      3.25401657974   -2.96109453828  -14.29344862716    4.00000000000
     -3.25402271772   -2.96109453828  -14.29344862716    4.00000000000
     13.01602639119    5.92218636178   -4.41288396045    4.00000000000
     13.01602639119   -5.92218778207   -4.41288396045    4.00000000000
    -13.01613079868    5.92218636178   -4.41288396045    4.00000000000
    -13.01613079868   -5.92218778207   -4.41288396045    4.00000000000
     -0.00000306899    4.44163930162  -14.29344862716    4.00000000000
     -0.00000306899   -4.44164130627  -14.29344862716    4.00000000000
    -13.01607322496    7.40273856892   -1.06892606631    4.00000000000
     13.01608396490    7.40273856892   -1.06892606631    4.00000000000
     13.01608411594   -7.40274019579   -1.06892138720    4.00000000000
    -13.01607307392   -7.40274019579   -1.06892138720    4.00000000000
      0.00000449994   14.80546613585   -2.54840438198   -2.00000000000
      0.00000449994  -14.80546922378   -2.54840438198   -2.00000000000
     -9.76206201519    5.92218606960   -9.76733754826   -2.00000000000
      9.76205587721    5.92218606960   -9.76733754826   -2.00000000000
      9.76205587721   -5.92218807425   -9.76733754826   -2.00000000000
     -9.76206201519   -5.92218807425   -9.76733754826   -2.00000000000
     -4.52611414790    1.48054576566  -14.29344862716   -2.00000000000
      4.52610800992    1.48054576566  -14.29344862716   -2.00000000000
      4.52610800992   -1.48054777030  -14.29344862716   -2.00000000000
     -4.52611414790   -1.48054777030  -14.29344862716   -2.00000000000
     -1.98193128755    4.44163930162  -14.29344862716   -2.00000000000
      1.98192514957    4.44163930162  -14.29344862716   -2.00000000000
      1.98192514957   -4.44164130627  -14.29344862716   -2.00000000000
     -1.98193128755   -4.44164130627  -14.29344862716   -2.00000000000
    -10.98081388475   10.36382714288   -1.11149295951   -2.00000000000
     10.98081952031   10.36382691719   -1.11149503385   -2.00000000000
     10.98081945346  -10.36382896020   -1.11149385695   -2.00000000000
    -10.98081324740  -10.36382886450   -1.11149163807   -2.00000000000
     -3.25401668289   14.80546716940   -1.42716235830    4.00000000000
      3.25402261457   14.80546716940   -1.42716235830    4.00000000000
      3.25402261457  -14.80546819023   -1.42716235830    4.00000000000
     -3.25401668289  -14.80546819023   -1.42716235830    4.00000000000
    -13.01608166392    1.48054576566   -7.78540932970    4.00000000000
     13.01607552594    1.48054576566   -7.78540932970    4.00000000000
     13.01607552594   -1.48054777030   -7.78540932970    4.00000000000
    -13.01608166392   -1.48054777030   -7.78540932970    4.00000000000
     -9.76206201519    8.88327960557   -7.78540932970    4.00000000000
      9.76205587721    8.88327960557   -7.78540932970    4.00000000000
      9.76205587721   -8.88328161021   -7.78540932970    4.00000000000
     -9.76206201519   -8.88328161021   -7.78540932970    4.00000000000
     -9.76206201519    4.44163930162  -11.03942897843    4.00000000000
      9.76205587721    4.44163930162  -11.03942897843    4.00000000000
      9.76205587721   -4.44164130627  -11.03942897843    4.00000000000
     -9.76206201519   -4.44164130627  -11.03942897843    4.00000000000
    -11.03415344536    7.40273283758   -7.78540932970   -2.00000000000
     11.03414730738    7.40273283758   -7.78540932970   -2.00000000000
     11.03414730738   -7.40273484223   -7.78540932970   -2.00000000000
    -11.03415344536   -7.40273484223   -7.78540932970   -2.00000000000
     -7.78013379663    7.40273283758  -11.03942897843   -2.00000000000
      7.78012765865    7.40273283758  -11.03942897843   -2.00000000000
      7.78012765865   -7.40273484223  -11.03942897843   -2.00000000000
     -7.78013379663   -7.40273484223  -11.03942897843   -2.00000000000
     -0.00005206359   14.80546716022   -4.41288206312    4.00000000000
     -0.00005206359  -14.80546819941   -4.41288206312    4.00000000000
[...]
 Number of virtual  orbitals:  1320
 Number of Cholesky vectors:      7
 Number of NAFs:               1554  (33.72%)
 MP2 energy in ED [au]:          -0.072632696022
 CPU time [min]: 49925.097                   Wall time [min]:   920.169
 
 MO:   342
 Number of atoms in domain:      70
 Number of atomic orbitals:    2896
 Number of atoms for local DF:   29
 Number of fitting functions:  3744  (44.57%)
 Number of occupied orbitals:    45
 Number of virtual  orbitals:  1145
 Number of Cholesky vectors:      7
 Number of NAFs:               1139  (30.42%)
 MP2 energy in ED [au]:          -0.071415243670
 CPU time [min]: 49997.113                   Wall time [min]:   921.233
 
 MO:   343
 Number of atoms in domain:      95
 Number of atomic orbitals:    3803
 Number of atoms for local DF:   46
 Number of fitting functions:  5736  (52.82%)
 Number of occupied orbitals:    88
 Number of virtual  orbitals:  1809
 Number of Cholesky vectors:      7
 Number of NAFs:               2311  (40.29%)
 MP2 energy in ED [au]:          -0.077357098145
 CPU time [min]: 50207.954                   Wall time [min]:   925.417
 
 MO:   344
 Number of atoms in domain:      88
 Number of atomic orbitals:    3619
 Number of atoms for local DF:   44
 Number of fitting functions:  5304  (50.67%)
 Number of occupied orbitals:    93
 Number of virtual  orbitals:  1674
 Number of Cholesky vectors:      7
 Number of NAFs:               2443  (46.06%)
 MP2 energy in ED [au]:          -0.079373548791
 CPU time [min]: 50402.000                   Wall time [min]:   929.283
 
 MO:   345
 Number of atoms in domain:      95
 Number of atomic orbitals:    3803
 Number of atoms for local DF:   45
 Number of fitting functions:  5520  (50.83%)
 Number of occupied orbitals:    94
 Number of virtual  orbitals:  1752
 Number of Cholesky vectors:      7
 Number of NAFs:               2422  (43.88%)
 MP2 energy in ED [au]:          -0.077892789127
 CPU time [min]: 50612.148                   Wall time [min]:   933.538
 
 MO:   346
 Number of atoms in domain:      72
 Number of atomic orbitals:    2925
 Number of atoms for local DF:   26
 Number of fitting functions:  3376  (40.13%)
 Number of occupied orbitals:    52
 Number of virtual  orbitals:  1034
 Number of Cholesky vectors:      7
 Number of NAFs:               1283  (38.00%)
 MP2 energy in ED [au]:          -0.079188345820
 CPU time [min]: 50682.372                   Wall time [min]:   934.616
 
 MO:   347
 Number of atoms in domain:      82
 Number of atomic orbitals:    3268
 Number of atoms for local DF:   26
 Number of fitting functions:  3236  (34.75%)
 Number of occupied orbitals:    58
 Number of virtual  orbitals:  1034
 Number of Cholesky vectors:      7
 Number of NAFs:               1379  (42.61%)
 MP2 energy in ED [au]:          -0.081704245889
 CPU time [min]: 50758.890                   Wall time [min]:   935.866
 
 MO:   348
 Number of atoms in domain:     101
 Number of atomic orbitals:    4055
 Number of atoms for local DF:   50
 Number of fitting functions:  6320  (54.50%)
 Number of occupied orbitals:   105
 Number of virtual  orbitals:  1968
 Number of Cholesky vectors:      7
 Number of NAFs:               2721  (43.05%)
 MP2 energy in ED [au]:          -0.077875807245
 CPU time [min]: 51027.207                   Wall time [min]:   941.430
 
 MO:   349
 Number of atoms in domain:      83
 Number of atomic orbitals:    3398
 Number of atoms for local DF:   33
 Number of fitting functions:  4608  (46.98%)
 Number of occupied orbitals:    62
 Number of virtual  orbitals:  1320
 Number of Cholesky vectors:      7
 Number of NAFs:               1611  (34.96%)
 MP2 energy in ED [au]:          -0.072640522355
 CPU time [min]: 51142.346                   Wall time [min]:   943.471
 
 MO:   350
 Number of atoms in domain:     106
 Number of atomic orbitals:    4210
 Number of atoms for local DF:   44
 Number of fitting functions:  5724  (47.80%)
 Number of occupied orbitals:    79
 Number of virtual  orbitals:  1779
 Number of Cholesky vectors:      7
 Number of NAFs:               2075  (36.25%)
 MP2 energy in ED [au]:          -0.075139786965
 CPU time [min]: 51353.927                   Wall time [min]:   947.680
 
 MO:   351
 Number of atoms in domain:      76
 Number of atomic orbitals:    3115
 Number of atoms for local DF:   33
 Number of fitting functions:  4188  (46.55%)
 Number of occupied orbitals:    54
 Number of virtual  orbitals:  1300
 Number of Cholesky vectors:      7
 Number of NAFs:               1368  (32.66%)
 MP2 energy in ED [au]:          -0.071241982427
 CPU time [min]: 51449.764                   Wall time [min]:   949.196
 
 MO:   352
 Number of atoms in domain:     105
 Number of atomic orbitals:    4278
 Number of atoms for local DF:   52
 Number of fitting functions:  6752  (54.81%)
 Number of occupied orbitals:   102
 Number of virtual  orbitals:  2069
 Number of Cholesky vectors:      7
 Number of NAFs:               2810  (41.62%)
 MP2 energy in ED [au]:          -0.081921339867
 CPU time [min]: 51727.901                   Wall time [min]:   955.097
 
 MO:   353
 Number of atoms in domain:      70
 Number of atomic orbitals:    2896
 Number of atoms for local DF:   29
 Number of fitting functions:  3744  (44.57%)
 Number of occupied orbitals:    45
 Number of virtual  orbitals:  1145
 Number of Cholesky vectors:      7
 Number of NAFs:               1139  (30.42%)
 MP2 energy in ED [au]:          -0.071415259321
 CPU time [min]: 51799.581                   Wall time [min]:   956.157
 
 MO:   354
 Number of atoms in domain:      70
 Number of atomic orbitals:    2863
 Number of atoms for local DF:   27
 Number of fitting functions:  3312  (40.10%)
 Number of occupied orbitals:    49
 Number of virtual  orbitals:  1048
 Number of Cholesky vectors:      7
 Number of NAFs:               1207  (36.44%)
 MP2 energy in ED [au]:          -0.065831379387
 CPU time [min]: 51867.654                   Wall time [min]:   957.168
 
 MO:   355
 Number of atoms in domain:      89
 Number of atomic orbitals:    3650
 Number of atoms for local DF:   45
 Number of fitting functions:  5520  (52.35%)
 Number of occupied orbitals:    93
 Number of virtual  orbitals:  1726
 Number of Cholesky vectors:      7
 Number of NAFs:               2447  (44.33%)
 MP2 energy in ED [au]:          -0.079374037647
 CPU time [min]: 52069.279                   Wall time [min]:   961.201
 
 MO:   356
 Number of atoms in domain:      86
 Number of atomic orbitals:    3359
 Number of atoms for local DF:   33
 Number of fitting functions:  4328  (45.67%)
 Number of occupied orbitals:    60
 Number of virtual  orbitals:  1318
 Number of Cholesky vectors:      7
 Number of NAFs:               1509  (34.87%)
 MP2 energy in ED [au]:          -0.070303553874
 CPU time [min]: 52177.173                   Wall time [min]:   963.044
 
 MO:   357
 Number of atoms in domain:     100
 Number of atomic orbitals:    3991
 Number of atoms for local DF:   40
 Number of fitting functions:  5420  (47.63%)
 Number of occupied orbitals:    70
 Number of virtual  orbitals:  1636
 Number of Cholesky vectors:      7
 Number of NAFs:               1826  (33.69%)
 MP2 energy in ED [au]:          -0.070349478151
 CPU time [min]: 52357.762                   Wall time [min]:   966.488
 
 MO:   358
 Number of atoms in domain:      67
 Number of atomic orbitals:    2770
 Number of atoms for local DF:   27
 Number of fitting functions:  3592  (44.72%)
 Number of occupied orbitals:    48
 Number of virtual  orbitals:  1079
 Number of Cholesky vectors:      7
 Number of NAFs:               1241  (34.55%)
 MP2 energy in ED [au]:          -0.071525830125
 CPU time [min]: 52428.110                   Wall time [min]:   967.536
 
 MO:   359
 Number of atoms in domain:      86
 Number of atomic orbitals:    3524
 Number of atoms for local DF:   42
 Number of fitting functions:  5432  (53.38%)
 Number of occupied orbitals:    79
 Number of virtual  orbitals:  1659
 Number of Cholesky vectors:      7
 Number of NAFs:               2109  (38.83%)
 MP2 energy in ED [au]:          -0.076145459107
 CPU time [min]: 52603.883                   Wall time [min]:   970.886
 
 MO:   360
 Number of atoms in domain:      85
 Number of atomic orbitals:    3493
 Number of atoms for local DF:   42
 Number of fitting functions:  5432  (53.78%)
 Number of occupied orbitals:    78
 Number of virtual  orbitals:  1651
 Number of Cholesky vectors:      7
 Number of NAFs:               2088  (38.44%)
 MP2 energy in ED [au]:          -0.076138730182
 CPU time [min]: 52776.301                   Wall time [min]:   974.161
 
 MO:   361
 Number of atoms in domain:      86
 Number of atomic orbitals:    3524
 Number of atoms for local DF:   42
 Number of fitting functions:  5432  (53.38%)
 Number of occupied orbitals:    78
 Number of virtual  orbitals:  1656
 Number of Cholesky vectors:      7
 Number of NAFs:               2088  (38.44%)
 MP2 energy in ED [au]:          -0.076138724722
 CPU time [min]: 52950.145                   Wall time [min]:   977.471
 
 MO:   362
 Number of atoms in domain:      82
 Number of atomic orbitals:    3268
 Number of atoms for local DF:   26
 Number of fitting functions:  3236  (34.75%)
 Number of occupied orbitals:    58
 Number of virtual  orbitals:  1034
 Number of Cholesky vectors:      7
 Number of NAFs:               1379  (42.61%)
 MP2 energy in ED [au]:          -0.081709218502
 CPU time [min]: 53026.504                   Wall time [min]:   978.719
 
 MO:   363
 Number of atoms in domain:      71
 Number of atomic orbitals:    2894
 Number of atoms for local DF:   26
 Number of fitting functions:  3516  (42.18%)
 Number of occupied orbitals:    47
 Number of virtual  orbitals:  1050
 Number of Cholesky vectors:      7
 Number of NAFs:               1169  (33.25%)
 MP2 energy in ED [au]:          -0.066298980590
 CPU time [min]: 53096.638                   Wall time [min]:   979.771
 
 MO:   364
 Number of atoms in domain:     106
 Number of atomic orbitals:    4243
 Number of atoms for local DF:   54
 Number of fitting functions:  6624  (54.67%)
 Number of occupied orbitals:   103
 Number of virtual  orbitals:  2106
 Number of Cholesky vectors:      7
 Number of NAFs:               2795  (42.20%)
 MP2 energy in ED [au]:          -0.079312863057
 CPU time [min]: 53379.740                   Wall time [min]:   985.574
 
 MO:   365
 Number of atoms in domain:     104
 Number of atomic orbitals:    4247
 Number of atoms for local DF:   51
 Number of fitting functions:  6956  (56.81%)
 Number of occupied orbitals:    89
 Number of virtual  orbitals:  2073
 Number of Cholesky vectors:      7
 Number of NAFs:               2528  (36.34%)
 MP2 energy in ED [au]:          -0.076496640262
 CPU time [min]: 53640.248                   Wall time [min]:   990.893
 
 MO:   366
 Number of atoms in domain:     105
 Number of atomic orbitals:    4179
 Number of atoms for local DF:   48
 Number of fitting functions:  6168  (51.83%)
 Number of occupied orbitals:   101
 Number of virtual  orbitals:  1912
 Number of Cholesky vectors:      7
 Number of NAFs:               2600  (42.15%)
 MP2 energy in ED [au]:          -0.077967676667
 CPU time [min]: 53892.618                   Wall time [min]:   996.176
 
 MO:   367
 Number of atoms in domain:      65
 Number of atomic orbitals:    2642
 Number of atoms for local DF:   16
 Number of fitting functions:  2196  (28.89%)
 Number of occupied orbitals:    25
 Number of virtual  orbitals:   672
 Number of Cholesky vectors:      7
 Number of NAFs:                618  (28.14%)
 MP2 energy in ED [au]:          -0.067672313545
 CPU time [min]: 53919.657                   Wall time [min]:   996.535
 
 MO:   368
 Number of atoms in domain:      98
 Number of atomic orbitals:    3929
 Number of atoms for local DF:   40
 Number of fitting functions:  5140  (45.78%)
 Number of occupied orbitals:    53
 Number of virtual  orbitals:  1592
 Number of Cholesky vectors:      7
 Number of NAFs:               1467  (28.54%)
 MP2 energy in ED [au]:          -0.065300909303
 CPU time [min]: 54057.094                   Wall time [min]:   998.902
 
 MO:   369
 Number of atoms in domain:     103
 Number of atomic orbitals:    4216
 Number of atoms for local DF:   51
 Number of fitting functions:  6956  (57.17%)
 Number of occupied orbitals:    89
 Number of virtual  orbitals:  2071
 Number of Cholesky vectors:      7
 Number of NAFs:               2528  (36.34%)
 MP2 energy in ED [au]:          -0.076498204072
 CPU time [min]: 54316.842                   Wall time [min]:  1004.193
 
 MO:   370
 Number of atoms in domain:      82
 Number of atomic orbitals:    3268
 Number of atoms for local DF:   26
 Number of fitting functions:  3236  (34.75%)
 Number of occupied orbitals:    58
 Number of virtual  orbitals:  1034
 Number of Cholesky vectors:      7
 Number of NAFs:               1379  (42.61%)
 MP2 energy in ED [au]:          -0.081709385857
 CPU time [min]: 54393.506                   Wall time [min]:  1005.446
 
 MO:   371
 Number of atoms in domain:      67
 Number of atomic orbitals:    2770
 Number of atoms for local DF:   27
 Number of fitting functions:  3592  (44.72%)
 Number of occupied orbitals:    48
 Number of virtual  orbitals:  1079
 Number of Cholesky vectors:      7
 Number of NAFs:               1240  (34.52%)
 MP2 energy in ED [au]:          -0.071524926519
 CPU time [min]: 54463.743                   Wall time [min]:  1006.492
 
 MO:   372
 Number of atoms in domain:     111
 Number of atomic orbitals:    4431
 Number of atoms for local DF:   45
 Number of fitting functions:  5800  (45.90%)
 Number of occupied orbitals:    59
 Number of virtual  orbitals:  1823
 Number of Cholesky vectors:      7
 Number of NAFs:               1624  (28.00%)
 MP2 energy in ED [au]:          -0.065875907742
 CPU time [min]: 54648.733                   Wall time [min]:  1009.933
 
 MO:   373
 Number of atoms in domain:      95
 Number of atomic orbitals:    3770
 Number of atoms for local DF:   46
 Number of fitting functions:  5736  (53.51%)
 Number of occupied orbitals:    90
 Number of virtual  orbitals:  1777
 Number of Cholesky vectors:      7
 Number of NAFs:               2324  (40.52%)
 MP2 energy in ED [au]:          -0.077978579139
 CPU time [min]: 54854.721                   Wall time [min]:  1014.034
 
 MO:   374
 Number of atoms in domain:      93
 Number of atomic orbitals:    3675
 Number of atoms for local DF:   45
 Number of fitting functions:  5660  (54.28%)
 Number of occupied orbitals:    85
 Number of virtual  orbitals:  1738
 Number of Cholesky vectors:      7
 Number of NAFs:               2159  (38.14%)
 MP2 energy in ED [au]:          -0.077502548273
 CPU time [min]: 55055.587                   Wall time [min]:  1017.915
 
 MO:   375
 Number of atoms in domain:      82
 Number of atomic orbitals:    3268
 Number of atoms for local DF:   26
 Number of fitting functions:  3236  (34.75%)
 Number of occupied orbitals:    58
 Number of virtual  orbitals:  1034
 Number of Cholesky vectors:      7
 Number of NAFs:               1379  (42.61%)
 MP2 energy in ED [au]:          -0.081703002980
 CPU time [min]: 55131.678                   Wall time [min]:  1019.159
 
 MO:   376
 Number of atoms in domain:      90
 Number of atomic orbitals:    3681
 Number of atoms for local DF:   46
 Number of fitting functions:  6016  (56.65%)
 Number of occupied orbitals:    87
 Number of virtual  orbitals:  1819
 Number of Cholesky vectors:      7
 Number of NAFs:               2288  (38.03%)
 MP2 energy in ED [au]:          -0.078911402777
 CPU time [min]: 55341.422                   Wall time [min]:  1023.267
 
 MO:   377
 Number of atoms in domain:      67
 Number of atomic orbitals:    2770
 Number of atoms for local DF:   26
 Number of fitting functions:  3376  (42.03%)
 Number of occupied orbitals:    47
 Number of virtual  orbitals:  1030
 Number of Cholesky vectors:      7
 Number of NAFs:               1219  (36.11%)
 MP2 energy in ED [au]:          -0.071518318170
 CPU time [min]: 55406.892                   Wall time [min]:  1024.235
 
 MO:   378
 Number of atoms in domain:     102
 Number of atomic orbitals:    4086
 Number of atoms for local DF:   49
 Number of fitting functions:  6104  (52.30%)
 Number of occupied orbitals:   104
 Number of virtual  orbitals:  1916
 Number of Cholesky vectors:      7
 Number of NAFs:               2697  (44.18%)
 MP2 energy in ED [au]:          -0.077872190491
 CPU time [min]: 55663.380                   Wall time [min]:  1029.546
 
 MO:   379
 Number of atoms in domain:      92
 Number of atomic orbitals:    3611
 Number of atoms for local DF:   43
 Number of fitting functions:  5508  (53.94%)
 Number of occupied orbitals:    80
 Number of virtual  orbitals:  1679
 Number of Cholesky vectors:      7
 Number of NAFs:               2018  (36.64%)
 MP2 energy in ED [au]:          -0.076964639954
 CPU time [min]: 55848.755                   Wall time [min]:  1033.080
 
 MO:   380
 Number of atoms in domain:     119
 Number of atomic orbitals:    4712
 Number of atoms for local DF:   60
 Number of fitting functions:  7640  (57.08%)
 Number of occupied orbitals:   111
 Number of virtual  orbitals:  2412
 Number of Cholesky vectors:      7
 Number of NAFs:               3060  (40.05%)
 MP2 energy in ED [au]:          -0.078341352945
 CPU time [min]: 56223.164                   Wall time [min]:  1041.145
 
 **********************************************************************
 Dimensions of the extended domains:    Minimum / Average / Maximum
 
 Number of atoms in domain:                  58      85.5       124
 Number of atomic orbitals:                2359    3450.3      4867
 Number of fitting functions:              1752    4632.6      8744
 Number of occupied localized MOs:           21      67.0       127
 Number of PAOs:                            517    1426.2      2767
 Number of NAFs:                            494    1746.4      3614
 
 **********************************************************************
 Final local correlation results
 
 Sum of pair energies [au]:                    -0.071077001981    (0.254%)
 Sum of energy corrections [au]:                0.000000000000    (0.000%)
 Sum of LMO contributions [au]:               -27.871070322410
 
 Reference energy [au]:                    -54143.610453867150
 DF-MP2 singles contribution [au]:              0.000000000000
 DF-MP2 correlation energy [au]:              -27.942147324391
 DF-MP2 energy [au]:                       -54171.552601191543
 
 **********************************************************************
  Time of manipulations in the EDs:      max CPU/Wall [s]  all CPU/Wall [min]
 
 PD construction & multipole pair E   45063.43   654.65   751.06    10.91
 Construct MO basis of the ED           156.53     2.07   335.50     4.46
 (mu,nu|P) evaluation & trf 2 (ai|P)  26339.30   574.41 50680.74   961.54
 Assembly of (Ia|jb)                    359.11     6.38   437.18     7.20
 Build W_PQ (Jai or Jpi part)           628.06    10.37   620.36     9.75
 Diagonalize W_PQ                       976.85    12.90  1199.30    15.84
 Transform (ai|P) to the NAF basis      556.27     9.72   624.77    10.54
 Evaluate MP2 energy of the ED         1231.71    16.29  1297.31    17.14
 Total of the above for all EDs       30247.83   632.14 55195.15  1026.46
 
 **********************************************************************
 Maximum memory requirement [MB]:       
 
 PD construction & multipole pair E       1684.2
 AO integral evaluation in the EDs       12998.5
 (mu,nu|P) evaluation & trf 2 (aI|P)     60460.3
 NAF construction and trf to NAFs        36795.2
 Evaluate MP2 energy in the EDs          18185.7
 
 ************************ 2021-11-18 22:27:08 *************************
                      Normal termination of mrcc.
 **********************************************************************
