 **********************************************************************
                          MRCC program system
 **********************************************************************
 
                              Written by
 Mihaly Kallay, Peter R. Nagy, David Mester, Zoltan Rolik, Gyula Samu,
   Jozsef Csontos, Jozsef Csoka, P. Bernat Szabo, Laszlo Gyevi-Nagy,
    Bence Hegely, Istvan Ladjanszki, Lorant Szegedy, Bence Ladoczki,
       Klara Petrov, Mate Farkas, Pal D. Mezei, and Adam Ganyecz
 
        Department of Physical Chemistry and Materials Science
            Budapest University of Technology and Economics
                  Budapest P.O.Box 91, H-1521 Hungary
 
                              www.mrcc.hu
 
                    Release date: February 22, 2020

 ************************ 2021-10-19 10:35:11 *************************
 Executing minp...

 Reading input from MINP...
 
 Input file:
 
calc=SCF
dft=PBE
scftype=rks
verbosity=3
mem=490GB
symm=off
unit=angs
scfiguess=restart
scfmaxit=1000

charge=-66
basis=special
def2-TZVPP
def2-TZVPP
def2-TZVPP
def2-TZVPP
def2-TZVPP
def2-TZVPP
def2-TZVPP
def2-TZVPP
def2-TZVPP
def2-TZVPP
def2-TZVPP
def2-TZVPP
def2-TZVPP
def2-TZVPP
def2-TZVPP
def2-TZVPP
def2-TZVPP
def2-TZVPP
def2-TZVPP
def2-TZVPP
def2-TZVPP
def2-TZVPP
def2-TZVPP
def2-TZVPP
def2-TZVPP
def2-TZVPP
def2-TZVPP
def2-TZVPP
def2-TZVPP
def2-TZVPP
def2-TZVPP
def2-TZVPP
def2-TZVPP
def2-TZVPP
def2-TZVPP
def2-TZVPP
def2-TZVPP
def2-TZVPP
def2-TZVPP
def2-TZVPP
def2-TZVPP
def2-TZVPP
def2-TZVPP
def2-TZVPP
def2-TZVPP
def2-TZVPP
def2-TZVPP
def2-TZVPP
def2-TZVPP
def2-TZVPP
def2-TZVPP
def2-TZVPP
def2-TZVPP
def2-TZVPP
def2-TZVPP
def2-TZVPP
def2-TZVPP
def2-TZVPP
def2-TZVPP
def2-TZVPP
def2-TZVPP
def2-TZVPP
def2-TZVPP
def2-TZVPP
def2-TZVPP
def2-TZVPP
def2-TZVPP
def2-TZVPP
def2-TZVPP
def2-TZVPP
def2-TZVPP
def2-TZVPP
def2-TZVPP
def2-TZVPP
def2-TZVPP
def2-TZVPP
def2-TZVPP
def2-TZVPP
def2-TZVPP
def2-TZVPP
def2-TZVPP
def2-TZVPP
def2-TZVPP
def2-TZVPP
def2-TZVPP
def2-TZVPP
def2-TZVPP
def2-TZVPP
def2-TZVPP
def2-TZVPP
def2-TZVPP
def2-TZVPP
def2-TZVPP
nothing
nothing
nothing
nothing
nothing
nothing
nothing
nothing
nothing
nothing
nothing
nothing
nothing
nothing
nothing
nothing
nothing
nothing
nothing
nothing
nothing
nothing
nothing
nothing
nothing
nothing
nothing
nothing
nothing
nothing
nothing
nothing
nothing
nothing
nothing
nothing
nothing
nothing
nothing
nothing
nothing
nothing
nothing
nothing
nothing
nothing
nothing
nothing
nothing
nothing
nothing
nothing
nothing
nothing
nothing
nothing
nothing
nothing
nothing
nothing
nothing
nothing
nothing
nothing
nothing
nothing
nothing
nothing
nothing
nothing
nothing
nothing
nothing
nothing
nothing
nothing
nothing
nothing
nothing
nothing
nothing
nothing
nothing
nothing
nothing
nothing
nothing
nothing
nothing
nothing
nothing
nothing
nothing
nothing
nothing
nothing
nothing
nothing
nothing
nothing
nothing
nothing
nothing
nothing
nothing
nothing
nothing
nothing
nothing
nothing
nothing
nothing
nothing
nothing
nothing
nothing
nothing
nothing
nothing
nothing
nothing
nothing
nothing
nothing
nothing
nothing
nothing
nothing
nothing
nothing
nothing
nothing
nothing
nothing
nothing
nothing
nothing
nothing
nothing
nothing
nothing
nothing
nothing
nothing
nothing
nothing
nothing
nothing
nothing
nothing
nothing
nothing
nothing
nothing
nothing
nothing
nothing
nothing
nothing
nothing
nothing
nothing
nothing
nothing
nothing
nothing
nothing
nothing
nothing
nothing
nothing
nothing
nothing
nothing
nothing
nothing
nothing
nothing
nothing
nothing
nothing
nothing
nothing
nothing
nothing
nothing
nothing
nothing
nothing
nothing
nothing
nothing
nothing
nothing
nothing
nothing
nothing
nothing
nothing
nothing
nothing
nothing
nothing
nothing
nothing
nothing
nothing
nothing
nothing
nothing
nothing
nothing
nothing
nothing
nothing
nothing
nothing
nothing
nothing
nothing
nothing
nothing
nothing
nothing
nothing
nothing
nothing
nothing
nothing
nothing
nothing
nothing
nothing
nothing
nothing
nothing
nothing
nothing
nothing
nothing
nothing
nothing
nothing
nothing
nothing
nothing
nothing
nothing
nothing
nothing
nothing
nothing
nothing
nothing
nothing
nothing
nothing
nothing
nothing
nothing
nothing
nothing
nothing
nothing
nothing
nothing
nothing
nothing
nothing
nothing

dfbasis_scf=special
def2-QZVPP-RI-JK
def2-QZVPP-RI-JK
def2-QZVPP-RI-JK
def2-QZVPP-RI-JK
def2-QZVPP-RI-JK
def2-QZVPP-RI-JK
def2-QZVPP-RI-JK
def2-QZVPP-RI-JK
def2-QZVPP-RI-JK
def2-QZVPP-RI-JK
def2-QZVPP-RI-JK
def2-QZVPP-RI-JK
def2-QZVPP-RI-JK
def2-QZVPP-RI-JK
def2-QZVPP-RI-JK
def2-QZVPP-RI-JK
def2-QZVPP-RI-JK
def2-QZVPP-RI-JK
def2-QZVPP-RI-JK
def2-QZVPP-RI-JK
def2-QZVPP-RI-JK
def2-QZVPP-RI-JK
def2-QZVPP-RI-JK
def2-QZVPP-RI-JK
def2-QZVPP-RI-JK
def2-QZVPP-RI-JK
def2-QZVPP-RI-JK
def2-QZVPP-RI-JK
def2-QZVPP-RI-JK
def2-QZVPP-RI-JK
def2-QZVPP-RI-JK
def2-QZVPP-RI-JK
def2-QZVPP-RI-JK
def2-QZVPP-RI-JK
def2-QZVPP-RI-JK
def2-QZVPP-RI-JK
def2-QZVPP-RI-JK
def2-QZVPP-RI-JK
def2-QZVPP-RI-JK
def2-QZVPP-RI-JK
def2-QZVPP-RI-JK
def2-QZVPP-RI-JK
def2-QZVPP-RI-JK
def2-QZVPP-RI-JK
def2-QZVPP-RI-JK
def2-QZVPP-RI-JK
def2-QZVPP-RI-JK
def2-QZVPP-RI-JK
def2-QZVPP-RI-JK
def2-QZVPP-RI-JK
def2-QZVPP-RI-JK
def2-QZVPP-RI-JK
def2-QZVPP-RI-JK
def2-QZVPP-RI-JK
def2-QZVPP-RI-JK
def2-QZVPP-RI-JK
def2-QZVPP-RI-JK
def2-QZVPP-RI-JK
def2-QZVPP-RI-JK
def2-QZVPP-RI-JK
def2-QZVPP-RI-JK
def2-QZVPP-RI-JK
def2-QZVPP-RI-JK
def2-QZVPP-RI-JK
def2-QZVPP-RI-JK
def2-QZVPP-RI-JK
def2-QZVPP-RI-JK
def2-QZVPP-RI-JK
def2-QZVPP-RI-JK
def2-QZVPP-RI-JK
def2-QZVPP-RI-JK
def2-QZVPP-RI-JK
def2-QZVPP-RI-JK
def2-QZVPP-RI-JK
def2-QZVPP-RI-JK
def2-QZVPP-RI-JK
def2-QZVPP-RI-JK
def2-QZVPP-RI-JK
def2-QZVPP-RI-JK
def2-QZVPP-RI-JK
def2-QZVPP-RI-JK
def2-QZVPP-RI-JK
def2-QZVPP-RI-JK
def2-QZVPP-RI-JK
def2-QZVPP-RI-JK
def2-QZVPP-RI-JK
def2-QZVPP-RI-JK
def2-QZVPP-RI-JK
def2-QZVPP-RI-JK
def2-QZVPP-RI-JK
def2-QZVPP-RI-JK
def2-QZVPP-RI-JK
def2-QZVPP-RI-JK
nothing
nothing
nothing
nothing
nothing
nothing
nothing
nothing
nothing
nothing
nothing
nothing
nothing
nothing
nothing
nothing
nothing
nothing
nothing
nothing
nothing
nothing
nothing
nothing
nothing
nothing
nothing
nothing
nothing
nothing
nothing
nothing
nothing
nothing
nothing
nothing
nothing
nothing
nothing
nothing
nothing
nothing
nothing
nothing
nothing
nothing
nothing
nothing
nothing
nothing
nothing
nothing
nothing
nothing
nothing
nothing
nothing
nothing
nothing
nothing
nothing
nothing
nothing
nothing
nothing
nothing
nothing
nothing
nothing
nothing
nothing
nothing
nothing
nothing
nothing
nothing
nothing
nothing
nothing
nothing
nothing
nothing
nothing
nothing
nothing
nothing
nothing
nothing
nothing
nothing
nothing
nothing
nothing
nothing
nothing
nothing
nothing
nothing
nothing
nothing
nothing
nothing
nothing
nothing
nothing
nothing
nothing
nothing
nothing
nothing
nothing
nothing
nothing
nothing
nothing
nothing
nothing
nothing
nothing
nothing
nothing
nothing
nothing
nothing
nothing
nothing
nothing
nothing
nothing
nothing
nothing
nothing
nothing
nothing
nothing
nothing
nothing
nothing
nothing
nothing
nothing
nothing
nothing
nothing
nothing
nothing
nothing
nothing
nothing
nothing
nothing
nothing
nothing
nothing
nothing
nothing
nothing
nothing
nothing
nothing
nothing
nothing
nothing
nothing
nothing
nothing
nothing
nothing
nothing
nothing
nothing
nothing
nothing
nothing
nothing
nothing
nothing
nothing
nothing
nothing
nothing
nothing
nothing
nothing
nothing
nothing
nothing
nothing
nothing
nothing
nothing
nothing
nothing
nothing
nothing
nothing
nothing
nothing
nothing
nothing
nothing
nothing
nothing
nothing
nothing
nothing
nothing
nothing
nothing
nothing
nothing
nothing
nothing
nothing
nothing
nothing
nothing
nothing
nothing
nothing
nothing
nothing
nothing
nothing
nothing
nothing
nothing
nothing
nothing
nothing
nothing
nothing
nothing
nothing
nothing
nothing
nothing
nothing
nothing
nothing
nothing
nothing
nothing
nothing
nothing
nothing
nothing
nothing
nothing
nothing
nothing
nothing
nothing
nothing
nothing
nothing
nothing
nothing
nothing
nothing
nothing
nothing
nothing
nothing
nothing
nothing
nothing
nothing
nothing
nothing

ecp=special
none
none
none
none
none
none
none
none
none
none
none
none
none
none
none
none
none
none
none
none
none
none
none
none
none
none
none
none
none
none
none
none
none
none
none
none
none
none
none
none
none
none
none
none
none
none
none
none
none
none
none
none
none
none
none
none
none
none
none
none
none
none
none
none
none
none
none
none
none
none
none
none
none
none
none
none
none
none
none
none
none
none
none
none
none
none
none
none
none
none
none
none
none
ECP-22
ECP-22
ECP-22
ECP-22
ECP-22
ECP-22
ECP-22
ECP-22
ECP-22
ECP-22
ECP-22
ECP-22
ECP-22
ECP-22
ECP-22
ECP-22
ECP-22
ECP-22
ECP-22
ECP-22
ECP-22
ECP-22
ECP-22
ECP-22
ECP-22
ECP-22
ECP-22
ECP-22
ECP-22
ECP-22
ECP-22
ECP-22
ECP-22
ECP-22
ECP-22
ECP-22
ECP-22
ECP-22
ECP-22
ECP-22
ECP-22
ECP-22
ECP-22
ECP-22
ECP-22
ECP-22
ECP-22
ECP-22
ECP-22
ECP-22
ECP-22
ECP-22
ECP-22
ECP-22
ECP-22
ECP-22
ECP-22
ECP-22
ECP-22
ECP-22
ECP-22
ECP-22
ECP-22
ECP-22
ECP-22
ECP-22
ECP-22
ECP-22
ECP-22
ECP-22
ECP-22
ECP-22
ECP-22
ECP-22
ECP-22
ECP-22
ECP-22
ECP-22
ECP-22
ECP-22
ECP-22
ECP-22
ECP-22
ECP-22
ECP-22
ECP-22
ECP-22
ECP-22
ECP-22
ECP-22
ECP-22
ECP-22
ECP-22
ECP-22
ECP-22
ECP-22
ECP-22
ECP-22
ECP-22
ECP-22
ECP-22
ECP-22
ECP-22
ECP-22
ECP-22
ECP-22
ECP-22
ECP-22
ECP-22
ECP-22
ECP-22
ECP-22
ECP-22
ECP-22
ECP-22
ECP-22
ECP-22
ECP-22
ECP-22
ECP-22
ECP-22
ECP-22
ECP-22
ECP-22
ECP-22
ECP-22
ECP-22
ECP-22
ECP-22
ECP-22
ECP-22
ECP-22
ECP-22
ECP-22
ECP-22
ECP-22
ECP-22
ECP-22
ECP-22
ECP-22
ECP-22
ECP-22
ECP-22
ECP-22
ECP-22
ECP-22
ECP-22
ECP-22
ECP-22
ECP-22
ECP-22
ECP-22
ECP-22
ECP-22
ECP-22
ECP-22
ECP-22
ECP-22
ECP-22
ECP-22
ECP-22
ECP-22
ECP-22
ECP-22
ECP-22
ECP-22
ECP-22
ECP-22
ECP-22
ECP-22
ECP-22
ECP-22
ECP-22
ECP-22
ECP-22
ECP-22
ECP-22
ECP-22
ECP-22
ECP-22
ECP-22
ECP-22
ECP-22
ECP-22
ECP-22
ECP-22
ECP-22
ECP-22
ECP-22
ECP-22
ECP-22
ECP-22
ECP-22
ECP-22
ECP-22
ECP-22
ECP-22
ECP-22
ECP-22
ECP-22
ECP-22
ECP-22
ECP-22
ECP-22
ECP-22
ECP-22
ECP-22
ECP-22
ECP-22
ECP-22
ECP-22
ECP-22
ECP-22
ECP-22
ECP-22
ECP-22
ECP-22
ECP-22
ECP-22
ECP-22
ECP-22
ECP-22
ECP-22
ECP-22
ECP-22
ECP-22
ECP-22
ECP-22
ECP-22
ECP-22
ECP-22
ECP-22
ECP-22
ECP-22
ECP-22
ECP-22
ECP-22
ECP-22
ECP-22
ECP-22
ECP-22
ECP-22
ECP-22
ECP-22
ECP-22
ECP-22
ECP-22
ECP-22
ECP-22
ECP-22
ECP-22
ECP-22
ECP-22
ECP-22
ECP-22
ECP-22
ECP-22
ECP-22
ECP-22
ECP-22
ECP-22
ECP-22
ECP-22
ECP-22
ECP-22
ECP-22
ECP-22
ECP-22
ECP-22
ECP-22

unit=angs
geom=xyz
363

O     0.00000000000    0.00000000000    0.00000000000
Ti    0.00000000000    1.48054676798   -1.27209143018
Ti    0.00000000000   -1.48054676798   -1.27209143018
Ti    0.00000000000    0.00000000000    1.98192821856
O    -0.00000000000    0.00000000000   -2.54418286035
O    -1.27209143018    1.48054676798    1.98192821856
O     1.27209143018    1.48054676798    1.98192821856
O     1.27209143018   -1.48054676798    1.98192821856
O    -1.27209143018   -1.48054676798    1.98192821856
O    -1.98192821856    1.48054676798   -1.27209143018
O     1.98192821856    1.48054676798   -1.27209143018
O     1.98192821856   -1.48054676798   -1.27209143018
O    -1.98192821856   -1.48054676798   -1.27209143018
O     0.00000000000    2.96109353596    0.00000000000
O     0.00000000000   -2.96109353596    0.00000000000
O    -3.25401964873    0.00000000000    0.70983678838
O     3.25401964873    0.00000000000    0.70983678838
Ti   -3.25401964873    0.00000000000   -1.27209143018
Ti    3.25401964873    0.00000000000   -1.27209143018
O    -0.00000000000    2.96109353596   -2.54418286035
O    -0.00000000000   -2.96109353596   -2.54418286035
O    -0.00000000000    0.00000000000    3.96385643712
Ti   -3.25401964873    1.48054676798    1.98192821856
Ti    3.25401964873    1.48054676798    1.98192821856
Ti    3.25401964873   -1.48054676798    1.98192821856
Ti   -3.25401964873   -1.48054676798    1.98192821856
O    -3.25401964873    2.96109353596    0.70983678838
O     3.25401964873    2.96109353596    0.70983678838
O     3.25401964873   -2.96109353596    0.70983678838
O    -3.25401964873   -2.96109353596    0.70983678838
Ti    0.00000000000    0.00000000000   -4.52611107891
Ti   -3.25401964873    2.96109353596   -1.27209143018
Ti    3.25401964873    2.96109353596   -1.27209143018
Ti    3.25401964873   -2.96109353596   -1.27209143018
Ti   -3.25401964873   -2.96109353596   -1.27209143018
O    -3.25401964873    0.00000000000    3.25401964873
O     3.25401964873    0.00000000000    3.25401964873
O    -3.25401964873    0.00000000000   -3.25401964873
O     3.25401964873    0.00000000000   -3.25401964873
Ti    0.00000000000    4.44164030394   -1.27209143018
Ti    0.00000000000   -4.44164030394   -1.27209143018
O    -4.52611107891    1.48054676798   -1.27209143018
O     4.52611107891    1.48054676798   -1.27209143018
O     4.52611107891   -1.48054676798   -1.27209143018
O    -4.52611107891   -1.48054676798   -1.27209143018
O    -1.27209143018    1.48054676798   -4.52611107891
O     1.27209143018    1.48054676798   -4.52611107891
O     1.27209143018   -1.48054676798   -4.52611107891
O    -1.27209143018   -1.48054676798   -4.52611107891
O    -0.00000000000    2.96109353596    3.96385643712
O    -0.00000000000   -2.96109353596    3.96385643712
O    -1.98192821856    4.44164030394   -1.27209143018
O     1.98192821856    4.44164030394   -1.27209143018
O     1.98192821856   -4.44164030394   -1.27209143018
O    -1.98192821856   -4.44164030394   -1.27209143018
Ti    0.00000000000    2.96109353596   -4.52611107891
Ti    0.00000000000   -2.96109353596   -4.52611107891
Ti    0.00000000000    1.48054676798    5.23594786729
Ti    0.00000000000   -1.48054676798    5.23594786729
O    -3.25401964873    2.96109353596    3.25401964873
O     3.25401964873    2.96109353596    3.25401964873
O     3.25401964873   -2.96109353596    3.25401964873
O    -3.25401964873   -2.96109353596    3.25401964873
O    -3.25401964873    2.96109353596   -3.25401964873
O     3.25401964873    2.96109353596   -3.25401964873
O     3.25401964873   -2.96109353596   -3.25401964873
O    -3.25401964873   -2.96109353596   -3.25401964873
O    -1.98192821856    1.48054676798    5.23594786729
O     1.98192821856    1.48054676798    5.23594786729
O     1.98192821856   -1.48054676798    5.23594786729
O    -1.98192821856   -1.48054676798    5.23594786729
O    -5.23594786729    1.48054676798    1.98192821856
O     5.23594786729    1.48054676798    1.98192821856
O     5.23594786729   -1.48054676798    1.98192821856
O    -5.23594786729   -1.48054676798    1.98192821856
O     0.00000000000    5.92218707193    0.00000000000
O     0.00000000000   -5.92218707193    0.00000000000
O    -0.00000000000    5.92218707193   -2.54418286035
O    -0.00000000000   -5.92218707193   -2.54418286035
O    -4.52611107891    4.44164030394   -1.27209143018
O     4.52611107891    4.44164030394   -1.27209143018
O     4.52611107891   -4.44164030394   -1.27209143018
O    -4.52611107891   -4.44164030394   -1.27209143018
O    -1.27209143018    4.44164030394   -4.52611107891
O     1.27209143018    4.44164030394   -4.52611107891
O     1.27209143018   -4.44164030394   -4.52611107891
O    -1.27209143018   -4.44164030394   -4.52611107891
O     0.00000000000    0.00000000000    6.50803929747
O     0.00000000000    0.00000000000   -6.50803929747
O     0.00000000000    2.96109353596    6.50803929747
O     0.00000000000   -2.96109353596    6.50803929747
O     0.00000000000    2.96109353596   -6.50803929747
O     0.00000000000   -2.96109353596   -6.50803929747
Ti    0.00000000000    2.96109353596    1.98192821856
Ti    0.00000000000   -2.96109353596    1.98192821856
Ti   -3.25401964873    1.48054676798   -4.52611107891
Ti    3.25401964873    1.48054676798   -4.52611107891
Ti    3.25401964873   -1.48054676798   -4.52611107891
Ti   -3.25401964873   -1.48054676798   -4.52611107891
Ti   -3.25401964873    4.44164030394    1.98192821856
Ti    3.25401964873    4.44164030394    1.98192821856
Ti    3.25401964873   -4.44164030394    1.98192821856
Ti   -3.25401964873   -4.44164030394    1.98192821856
Ti   -3.25401964873    0.00000000000    5.23594786729
Ti    3.25401964873    0.00000000000    5.23594786729
Ti    0.00000000000    5.92218707193    1.98192821856
Ti    0.00000000000   -5.92218707193    1.98192821856
Ti   -6.50803929747    1.48054676798   -1.27209143018
Ti    6.50803929747    1.48054676798   -1.27209143018
Ti    6.50803929747   -1.48054676798   -1.27209143018
Ti   -6.50803929747   -1.48054676798   -1.27209143018
Ti   -6.50803929747    0.00000000000    1.98192821856
Ti    6.50803929747    0.00000000000    1.98192821856
Ti   -3.25401964873    2.96109353596    5.23594786729
Ti    3.25401964873    2.96109353596    5.23594786729
Ti    3.25401964873   -2.96109353596    5.23594786729
Ti   -3.25401964873   -2.96109353596    5.23594786729
Ti    0.00000000000    4.44164030394    5.23594786729
Ti    0.00000000000   -4.44164030394    5.23594786729
Ti   -3.25401964873    5.92218707193   -1.27209143018
Ti    3.25401964873    5.92218707193   -1.27209143018
Ti    3.25401964873   -5.92218707193   -1.27209143018
Ti   -3.25401964873   -5.92218707193   -1.27209143018
Ti   -3.25401964873    4.44164030394   -4.52611107891
Ti    3.25401964873    4.44164030394   -4.52611107891
Ti    3.25401964873   -4.44164030394   -4.52611107891
Ti   -3.25401964873   -4.44164030394   -4.52611107891
Ti   -6.50803929747    2.96109353596    1.98192821856
Ti    6.50803929747    2.96109353596    1.98192821856
Ti    6.50803929747   -2.96109353596    1.98192821856
Ti   -6.50803929747   -2.96109353596    1.98192821856
Ti    0.00000000000    5.92218707193   -4.52611107891
Ti    0.00000000000   -5.92218707193   -4.52611107891
Ti    0.00000000000    7.40273383991   -1.27209143018
Ti    0.00000000000   -7.40273383991   -1.27209143018
Ti    0.00000000000    1.48054676798   -7.78013072764
Ti    0.00000000000   -1.48054676798   -7.78013072764
Ti   -6.50803929747    0.00000000000   -4.52611107891
Ti    6.50803929747    0.00000000000   -4.52611107891
Ti   -6.50803929747    4.44164030394   -1.27209143018
Ti    6.50803929747    4.44164030394   -1.27209143018
Ti    6.50803929747   -4.44164030394   -1.27209143018
Ti   -6.50803929747   -4.44164030394   -1.27209143018
Ti   -3.25401964873    7.40273383991    1.98192821856
Ti    3.25401964873    7.40273383991    1.98192821856
Ti    3.25401964873   -7.40273383991    1.98192821856
Ti   -3.25401964873   -7.40273383991    1.98192821856
Ti   -3.25401964873    0.00000000000   -7.78013072764
Ti    3.25401964873    0.00000000000   -7.78013072764
Ti   -6.50803929747    2.96109353596   -4.52611107891
Ti    6.50803929747    2.96109353596   -4.52611107891
Ti    6.50803929747   -2.96109353596   -4.52611107891
Ti   -6.50803929747   -2.96109353596   -4.52611107891
Ti   -6.50803929747    1.48054676798    5.23594786729
Ti    6.50803929747    1.48054676798    5.23594786729
Ti    6.50803929747   -1.48054676798    5.23594786729
Ti   -6.50803929747   -1.48054676798    5.23594786729
Ti    0.00000000000    0.00000000000    8.48996751602
Ti   -3.25401964873    5.92218707193    5.23594786729
Ti    3.25401964873    5.92218707193    5.23594786729
Ti    3.25401964873   -5.92218707193    5.23594786729
Ti   -3.25401964873   -5.92218707193    5.23594786729
Ti   -3.25401964873    2.96109353596   -7.78013072764
Ti    3.25401964873    2.96109353596   -7.78013072764
Ti    3.25401964873   -2.96109353596   -7.78013072764
Ti   -3.25401964873   -2.96109353596   -7.78013072764
Ti    0.00000000000    4.44164030394   -7.78013072764
Ti    0.00000000000   -4.44164030394   -7.78013072764
Ti    0.00000000000    2.96109353596    8.48996751602
Ti    0.00000000000   -2.96109353596    8.48996751602
Ti   -6.50803929747    5.92218707193    1.98192821856
Ti    6.50803929747    5.92218707193    1.98192821856
Ti    6.50803929747   -5.92218707193    1.98192821856
Ti   -6.50803929747   -5.92218707193    1.98192821856
Ti    0.00000000000    7.40273383991    5.23594786729
Ti    0.00000000000   -7.40273383991    5.23594786729
Ti    0.00000000000    8.88328060789    1.98192821856
Ti    0.00000000000   -8.88328060789    1.98192821856
Ti   -3.25401964873    1.48054676798    8.48996751602
Ti    3.25401964873    1.48054676798    8.48996751602
Ti    3.25401964873   -1.48054676798    8.48996751602
Ti   -3.25401964873   -1.48054676798    8.48996751602
Ti   -3.25401964873    7.40273383991   -4.52611107891
Ti    3.25401964873    7.40273383991   -4.52611107891
Ti    3.25401964873   -7.40273383991   -4.52611107891
Ti   -3.25401964873   -7.40273383991   -4.52611107891
Ti   -6.50803929747    4.44164030394    5.23594786729
Ti    6.50803929747    4.44164030394    5.23594786729
Ti    6.50803929747   -4.44164030394    5.23594786729
Ti   -6.50803929747   -4.44164030394    5.23594786729
Ti   -3.25401964873    8.88328060789   -1.27209143018
Ti    3.25401964873    8.88328060789   -1.27209143018
Ti    3.25401964873   -8.88328060789   -1.27209143018
Ti   -3.25401964873   -8.88328060789   -1.27209143018
Ti   -9.76205894620    0.00000000000   -1.27209143018
Ti    9.76205894620    0.00000000000   -1.27209143018
Ti   -6.50803929747    5.92218707193   -4.52611107891
Ti    6.50803929747    5.92218707193   -4.52611107891
Ti    6.50803929747   -5.92218707193   -4.52611107891
Ti   -6.50803929747   -5.92218707193   -4.52611107891
Ti   -6.50803929747    7.40273383991   -1.27209143018
Ti    6.50803929747    7.40273383991   -1.27209143018
Ti    6.50803929747   -7.40273383991   -1.27209143018
Ti   -6.50803929747   -7.40273383991   -1.27209143018
Ti    0.00000000000    8.88328060789   -4.52611107891
Ti    0.00000000000   -8.88328060789   -4.52611107891
Ti   -9.76205894620    1.48054676798    1.98192821856
Ti    9.76205894620    1.48054676798    1.98192821856
Ti    9.76205894620   -1.48054676798    1.98192821856
Ti   -9.76205894620   -1.48054676798    1.98192821856
Ti   -3.25401964873    4.44164030394    8.48996751602
Ti    3.25401964873    4.44164030394    8.48996751602
Ti    3.25401964873   -4.44164030394    8.48996751602
Ti   -3.25401964873   -4.44164030394    8.48996751602
Ti   -6.50803929747    1.48054676798   -7.78013072764
Ti    6.50803929747    1.48054676798   -7.78013072764
Ti    6.50803929747   -1.48054676798   -7.78013072764
Ti   -6.50803929747   -1.48054676798   -7.78013072764
Ti   -9.76205894620    2.96109353596   -1.27209143018
Ti    9.76205894620    2.96109353596   -1.27209143018
Ti    9.76205894620   -2.96109353596   -1.27209143018
Ti   -9.76205894620   -2.96109353596   -1.27209143018
Ti   -3.25401964873    5.92218707193   -7.78013072764
Ti    3.25401964873    5.92218707193   -7.78013072764
Ti    3.25401964873   -5.92218707193   -7.78013072764
Ti   -3.25401964873   -5.92218707193   -7.78013072764
Ti    0.00000000000    5.92218707193    8.48996751602
Ti    0.00000000000   -5.92218707193    8.48996751602
Ti    0.00000000000   10.36382737587   -1.27209143018
Ti    0.00000000000  -10.36382737587   -1.27209143018
Ti   -6.50803929747    0.00000000000    8.48996751602
Ti    6.50803929747    0.00000000000    8.48996751602
Ti    0.00000000000    7.40273383991   -7.78013072764
Ti    0.00000000000   -7.40273383991   -7.78013072764
Ti   -3.25401964873    8.88328060789    5.23594786729
Ti    3.25401964873    8.88328060789    5.23594786729
Ti    3.25401964873   -8.88328060789    5.23594786729
Ti   -3.25401964873   -8.88328060789    5.23594786729
Ti   -9.76205894620    1.48054676798   -4.52611107891
Ti    9.76205894620    1.48054676798   -4.52611107891
Ti    9.76205894620   -1.48054676798   -4.52611107891
Ti   -9.76205894620   -1.48054676798   -4.52611107891
Ti   -9.76205894620    4.44164030394    1.98192821856
Ti    9.76205894620    4.44164030394    1.98192821856
Ti    9.76205894620   -4.44164030394    1.98192821856
Ti   -9.76205894620   -4.44164030394    1.98192821856
Ti    0.00000000000    0.00000000000  -11.03415037637
Ti   -3.25401964873   10.36382737587    1.98192821856
Ti    3.25401964873   10.36382737587    1.98192821856
Ti    3.25401964873  -10.36382737587    1.98192821856
Ti   -3.25401964873  -10.36382737587    1.98192821856
Ti   -6.50803929747    4.44164030394   -7.78013072764
Ti    6.50803929747    4.44164030394   -7.78013072764
Ti    6.50803929747   -4.44164030394   -7.78013072764
Ti   -6.50803929747   -4.44164030394   -7.78013072764
Ti   -9.76205894620    0.00000000000    5.23594786729
Ti    9.76205894620    0.00000000000    5.23594786729
Ti   -6.50803929747    2.96109353596    8.48996751602
Ti    6.50803929747    2.96109353596    8.48996751602
Ti    6.50803929747   -2.96109353596    8.48996751602
Ti   -6.50803929747   -2.96109353596    8.48996751602
Ti   -6.50803929747    7.40273383991    5.23594786729
Ti    6.50803929747    7.40273383991    5.23594786729
Ti    6.50803929747   -7.40273383991    5.23594786729
Ti   -6.50803929747   -7.40273383991    5.23594786729
Ti   -6.50803929747    8.88328060789    1.98192821856
Ti    6.50803929747    8.88328060789    1.98192821856
Ti    6.50803929747   -8.88328060789    1.98192821856
Ti   -6.50803929747   -8.88328060789    1.98192821856
Ti    0.00000000000    2.96109353596  -11.03415037637
Ti    0.00000000000   -2.96109353596  -11.03415037637
Ti   -9.76205894620    2.96109353596    5.23594786729
Ti    9.76205894620    2.96109353596    5.23594786729
Ti    9.76205894620   -2.96109353596    5.23594786729
Ti   -9.76205894620   -2.96109353596    5.23594786729
Ti   -9.76205894620    5.92218707193   -1.27209143018
Ti    9.76205894620    5.92218707193   -1.27209143018
Ti    9.76205894620   -5.92218707193   -1.27209143018
Ti   -9.76205894620   -5.92218707193   -1.27209143018
Ti   -3.25401964873    1.48054676798  -11.03415037637
Ti    3.25401964873    1.48054676798  -11.03415037637
Ti    3.25401964873   -1.48054676798  -11.03415037637
Ti   -3.25401964873   -1.48054676798  -11.03415037637
Ti    0.00000000000   10.36382737587    5.23594786729
Ti    0.00000000000  -10.36382737587    5.23594786729
Ti   -9.76205894620    4.44164030394   -4.52611107891
Ti    9.76205894620    4.44164030394   -4.52611107891
Ti    9.76205894620   -4.44164030394   -4.52611107891
Ti   -9.76205894620   -4.44164030394   -4.52611107891
Ti   -3.25401964873    7.40273383991    8.48996751602
Ti    3.25401964873    7.40273383991    8.48996751602
Ti    3.25401964873   -7.40273383991    8.48996751602
Ti   -3.25401964873   -7.40273383991    8.48996751602
Ti   -3.25401964873   10.36382737587   -4.52611107891
Ti    3.25401964873   10.36382737587   -4.52611107891
Ti    3.25401964873  -10.36382737587   -4.52611107891
Ti   -3.25401964873  -10.36382737587   -4.52611107891
Ti    0.00000000000    1.48054676798   11.74398716476
Ti    0.00000000000   -1.48054676798   11.74398716476
Ti   -6.50803929747    8.88328060789   -4.52611107891
Ti    6.50803929747    8.88328060789   -4.52611107891
Ti    6.50803929747   -8.88328060789   -4.52611107891
Ti   -6.50803929747   -8.88328060789   -4.52611107891
Ti    0.00000000000   11.84437414385    1.98192821856
Ti    0.00000000000  -11.84437414385    1.98192821856
Ti   -3.25401964873    0.00000000000   11.74398716476
Ti    3.25401964873    0.00000000000   11.74398716476
Ti   -6.50803929747    5.92218707193    8.48996751602
Ti    6.50803929747    5.92218707193    8.48996751602
Ti    6.50803929747   -5.92218707193    8.48996751602
Ti   -6.50803929747   -5.92218707193    8.48996751602
Ti   -3.25401964873    8.88328060789   -7.78013072764
Ti    3.25401964873    8.88328060789   -7.78013072764
Ti    3.25401964873   -8.88328060789   -7.78013072764
Ti   -3.25401964873   -8.88328060789   -7.78013072764
Ti    0.00000000000    8.88328060789    8.48996751602
Ti    0.00000000000   -8.88328060789    8.48996751602
Ti   -6.50803929747   10.36382737587   -1.27209143018
Ti    6.50803929747   10.36382737587   -1.27209143018
Ti    6.50803929747  -10.36382737587   -1.27209143018
Ti   -6.50803929747  -10.36382737587   -1.27209143018
Ti   -3.25401964873    4.44164030394  -11.03415037637
Ti    3.25401964873    4.44164030394  -11.03415037637
Ti    3.25401964873   -4.44164030394  -11.03415037637
Ti   -3.25401964873   -4.44164030394  -11.03415037637
Ti   -3.25401964873   11.84437414385   -1.27209143018
Ti    3.25401964873   11.84437414385   -1.27209143018
Ti    3.25401964873  -11.84437414385   -1.27209143018
Ti   -3.25401964873  -11.84437414385   -1.27209143018
Ti   -9.76205894620    7.40273383991    1.98192821856
Ti    9.76205894620    7.40273383991    1.98192821856
Ti    9.76205894620   -7.40273383991    1.98192821856
Ti   -9.76205894620   -7.40273383991    1.98192821856
Ti    0.00000000000    5.92218707193  -11.03415037637
Ti    0.00000000000   -5.92218707193  -11.03415037637
Ti   -3.25401964873    2.96109353596   11.74398716476
Ti    3.25401964873    2.96109353596   11.74398716476
Ti    3.25401964873   -2.96109353596   11.74398716476
Ti   -3.25401964873   -2.96109353596   11.74398716476
Ti    0.00000000000    4.44164030394   11.74398716476
Ti    0.00000000000   -4.44164030394   11.74398716476
Ti   -6.50803929747    7.40273383991   -7.78013072764
Ti    6.50803929747    7.40273383991   -7.78013072764
Ti    6.50803929747   -7.40273383991   -7.78013072764
Ti   -6.50803929747   -7.40273383991   -7.78013072764
Ti    0.00000000000   11.84437414385   -4.52611107891
Ti    0.00000000000  -11.84437414385   -4.52611107891
Ti    0.00000000000   10.36382737587   -7.78013072764
Ti    0.00000000000  -10.36382737587   -7.78013072764
Ti   -9.76205894620    7.40273383991   -4.52611107891
Ti    9.76205894620    7.40273383991   -4.52611107891
Ti    9.76205894620   -7.40273383991   -4.52611107891
Ti   -9.76205894620   -7.40273383991   -4.52611107891
Ti   -9.76205894620    8.88328060789   -1.27209143018
Ti    9.76205894620    8.88328060789   -1.27209143018
Ti    9.76205894620   -8.88328060789   -1.27209143018
Ti   -9.76205894620   -8.88328060789   -1.27209143018
Ti   -3.25401964873    5.92218707193   11.74398716476
Ti    3.25401964873    5.92218707193   11.74398716476
Ti    3.25401964873   -5.92218707193   11.74398716476
Ti   -3.25401964873   -5.92218707193   11.74398716476
Ti    0.00000000000    7.40273383991   11.74398716476
Ti    0.00000000000   -7.40273383991   11.74398716476

ghost=serialno
1

qmmm=Amber
pointcharges
10745
      0.00000000000    2.96109353596    1.98192821856    4.00000000000
      0.00000000000   -2.96109353596    1.98192821856    4.00000000000
     -1.27209143018    4.44164030394    1.98192821856   -2.00000000000
      1.27209143018    4.44164030394    1.98192821856   -2.00000000000
      1.27209143018   -4.44164030394    1.98192821856   -2.00000000000
     -1.27209143018   -4.44164030394    1.98192821856   -2.00000000000
     -3.25401964873    1.48054676798   -4.52611107891    4.00000000000
      3.25401964873    1.48054676798   -4.52611107891    4.00000000000
      3.25401964873   -1.48054676798   -4.52611107891    4.00000000000
     -3.25401964873   -1.48054676798   -4.52611107891    4.00000000000
     -3.25401964873    4.44164030394    1.98192821856    4.00000000000
      3.25401964873    4.44164030394    1.98192821856    4.00000000000
      3.25401964873   -4.44164030394    1.98192821856    4.00000000000
     -3.25401964873   -4.44164030394    1.98192821856    4.00000000000
     -3.25401964873    0.00000000000    5.23594786729    4.00000000000
      3.25401964873    0.00000000000    5.23594786729    4.00000000000
      0.00000000000    5.92218707193    1.98192821856    4.00000000000
      0.00000000000   -5.92218707193    1.98192821856    4.00000000000
     -6.50803929747    0.00000000000    0.00000000000   -2.00000000000
      6.50803929747    0.00000000000    0.00000000000   -2.00000000000
     -3.25401964873    0.00000000000   -5.79820250908   -2.00000000000
      3.25401964873    0.00000000000   -5.79820250908   -2.00000000000
     -3.25401964873    5.92218707193    0.70983678838   -2.00000000000
      3.25401964873    5.92218707193    0.70983678838   -2.00000000000
      3.25401964873   -5.92218707193    0.70983678838   -2.00000000000
     -3.25401964873   -5.92218707193    0.70983678838   -2.00000000000
     -6.50803929747    1.48054676798   -1.27209143018    4.00000000000
      6.50803929747    1.48054676798   -1.27209143018    4.00000000000
      6.50803929747   -1.48054676798   -1.27209143018    4.00000000000
     -6.50803929747   -1.48054676798   -1.27209143018    4.00000000000
     -6.50803929747    0.00000000000    1.98192821856    4.00000000000
      6.50803929747    0.00000000000    1.98192821856    4.00000000000
     -3.25401964873    2.96109353596    5.23594786729    4.00000000000
      3.25401964873    2.96109353596    5.23594786729    4.00000000000
      3.25401964873   -2.96109353596    5.23594786729    4.00000000000
     -3.25401964873   -2.96109353596    5.23594786729    4.00000000000
      0.00000000000    4.44164030394    5.23594786729    4.00000000000
      0.00000000000   -4.44164030394    5.23594786729    4.00000000000
     -3.25401964873    5.92218707193   -1.27209143018    4.00000000000
      3.25401964873    5.92218707193   -1.27209143018    4.00000000000
      3.25401964873   -5.92218707193   -1.27209143018    4.00000000000
     -3.25401964873   -5.92218707193   -1.27209143018    4.00000000000
     -6.50803929747    0.00000000000   -2.54418286035   -2.00000000000
      6.50803929747    0.00000000000   -2.54418286035   -2.00000000000
     -4.52611107891    1.48054676798    5.23594786729   -2.00000000000
      4.52611107891    1.48054676798    5.23594786729   -2.00000000000
      4.52611107891   -1.48054676798    5.23594786729   -2.00000000000
     -4.52611107891   -1.48054676798    5.23594786729   -2.00000000000
     -5.23594786729    1.48054676798   -4.52611107891   -2.00000000000
      5.23594786729    1.48054676798   -4.52611107891   -2.00000000000
      5.23594786729   -1.48054676798   -4.52611107891   -2.00000000000
     -5.23594786729   -1.48054676798   -4.52611107891   -2.00000000000
     -0.00000000000    5.92218707193    3.96385643712   -2.00000000000
     -0.00000000000   -5.92218707193    3.96385643712   -2.00000000000
     -3.25401964873    4.44164030394   -4.52611107891    4.00000000000
      3.25401964873    4.44164030394   -4.52611107891    4.00000000000
      3.25401964873   -4.44164030394   -4.52611107891    4.00000000000
     -3.25401964873   -4.44164030394   -4.52611107891    4.00000000000
     -1.98192821856    4.44164030394    5.23594786729   -2.00000000000
      1.98192821856    4.44164030394    5.23594786729   -2.00000000000
      1.98192821856   -4.44164030394    5.23594786729   -2.00000000000
     -1.98192821856   -4.44164030394    5.23594786729   -2.00000000000
     -5.23594786729    4.44164030394    1.98192821856   -2.00000000000
      5.23594786729    4.44164030394    1.98192821856   -2.00000000000
      5.23594786729   -4.44164030394    1.98192821856   -2.00000000000
     -5.23594786729   -4.44164030394    1.98192821856   -2.00000000000
     -6.50803929747    2.96109353596    0.00000000000   -2.00000000000
      6.50803929747    2.96109353596    0.00000000000   -2.00000000000
      6.50803929747   -2.96109353596    0.00000000000   -2.00000000000
     -6.50803929747   -2.96109353596    0.00000000000   -2.00000000000
     -3.25401964873    2.96109353596   -5.79820250908   -2.00000000000
      3.25401964873    2.96109353596   -5.79820250908   -2.00000000000
      3.25401964873   -2.96109353596   -5.79820250908   -2.00000000000
     -3.25401964873   -2.96109353596   -5.79820250908   -2.00000000000
     -6.50803929747    2.96109353596    1.98192821856    4.00000000000
      6.50803929747    2.96109353596    1.98192821856    4.00000000000
      6.50803929747   -2.96109353596    1.98192821856    4.00000000000
     -6.50803929747   -2.96109353596    1.98192821856    4.00000000000
      0.00000000000    5.92218707193   -4.52611107891    4.00000000000
      0.00000000000   -5.92218707193   -4.52611107891    4.00000000000
     -3.25401964873    5.92218707193    3.25401964873   -2.00000000000
      3.25401964873    5.92218707193    3.25401964873   -2.00000000000
      3.25401964873   -5.92218707193    3.25401964873   -2.00000000000
     -3.25401964873   -5.92218707193    3.25401964873   -2.00000000000
     -3.25401964873    5.92218707193   -3.25401964873   -2.00000000000
      3.25401964873    5.92218707193   -3.25401964873   -2.00000000000
      3.25401964873   -5.92218707193   -3.25401964873   -2.00000000000
     -3.25401964873   -5.92218707193   -3.25401964873   -2.00000000000
      0.00000000000    7.40273383991   -1.27209143018    4.00000000000
      0.00000000000   -7.40273383991   -1.27209143018    4.00000000000
     -6.50803929747    2.96109353596   -2.54418286035   -2.00000000000
      6.50803929747    2.96109353596   -2.54418286035   -2.00000000000
      6.50803929747   -2.96109353596   -2.54418286035   -2.00000000000
     -6.50803929747   -2.96109353596   -2.54418286035   -2.00000000000
     -6.50803929747    0.00000000000    3.96385643712   -2.00000000000
      6.50803929747    0.00000000000    3.96385643712   -2.00000000000
     -1.27209143018    7.40273383991    1.98192821856   -2.00000000000
      1.27209143018    7.40273383991    1.98192821856   -2.00000000000
      1.27209143018   -7.40273383991    1.98192821856   -2.00000000000
     -1.27209143018   -7.40273383991    1.98192821856   -2.00000000000
     -1.98192821856    7.40273383991   -1.27209143018   -2.00000000000
      1.98192821856    7.40273383991   -1.27209143018   -2.00000000000
      1.98192821856   -7.40273383991   -1.27209143018   -2.00000000000
     -1.98192821856   -7.40273383991   -1.27209143018   -2.00000000000
     -3.25401964873    0.00000000000    7.21787608585   -2.00000000000
      3.25401964873    0.00000000000    7.21787608585   -2.00000000000
      0.00000000000    1.48054676798   -7.78013072764    4.00000000000
      0.00000000000   -1.48054676798   -7.78013072764    4.00000000000
     -6.50803929747    0.00000000000   -4.52611107891    4.00000000000
      6.50803929747    0.00000000000   -4.52611107891    4.00000000000
     -6.50803929747    4.44164030394   -1.27209143018    4.00000000000
      6.50803929747    4.44164030394   -1.27209143018    4.00000000000
      6.50803929747   -4.44164030394   -1.27209143018    4.00000000000
     -6.50803929747   -4.44164030394   -1.27209143018    4.00000000000
     -7.78013072764    1.48054676798    1.98192821856   -2.00000000000
      7.78013072764    1.48054676798    1.98192821856   -2.00000000000
      7.78013072764   -1.48054676798    1.98192821856   -2.00000000000
     -7.78013072764   -1.48054676798    1.98192821856   -2.00000000000
     -1.98192821856    1.48054676798   -7.78013072764   -2.00000000000
      1.98192821856    1.48054676798   -7.78013072764   -2.00000000000
      1.98192821856   -1.48054676798   -7.78013072764   -2.00000000000
     -1.98192821856   -1.48054676798   -7.78013072764   -2.00000000000
     -6.50803929747    2.96109353596    3.96385643712   -2.00000000000
      6.50803929747    2.96109353596    3.96385643712   -2.00000000000
      6.50803929747   -2.96109353596    3.96385643712   -2.00000000000
     -6.50803929747   -2.96109353596    3.96385643712   -2.00000000000
     -4.52611107891    4.44164030394    5.23594786729   -2.00000000000
      4.52611107891    4.44164030394    5.23594786729   -2.00000000000
      4.52611107891   -4.44164030394    5.23594786729   -2.00000000000
     -4.52611107891   -4.44164030394    5.23594786729   -2.00000000000
     -5.23594786729    4.44164030394   -4.52611107891   -2.00000000000
      5.23594786729    4.44164030394   -4.52611107891   -2.00000000000
      5.23594786729   -4.44164030394   -4.52611107891   -2.00000000000
     -5.23594786729   -4.44164030394   -4.52611107891   -2.00000000000
     -3.25401964873    7.40273383991    1.98192821856    4.00000000000
      3.25401964873    7.40273383991    1.98192821856    4.00000000000
      3.25401964873   -7.40273383991    1.98192821856    4.00000000000
     -3.25401964873   -7.40273383991    1.98192821856    4.00000000000
     -3.25401964873    0.00000000000   -7.78013072764    4.00000000000
      3.25401964873    0.00000000000   -7.78013072764    4.00000000000
     -3.25401964873    2.96109353596    7.21787608585   -2.00000000000
      3.25401964873    2.96109353596    7.21787608585   -2.00000000000
      3.25401964873   -2.96109353596    7.21787608585   -2.00000000000
     -3.25401964873   -2.96109353596    7.21787608585   -2.00000000000
     -6.50803929747    2.96109353596   -4.52611107891    4.00000000000
      6.50803929747    2.96109353596   -4.52611107891    4.00000000000
      6.50803929747   -2.96109353596   -4.52611107891    4.00000000000
     -6.50803929747   -2.96109353596   -4.52611107891    4.00000000000
     -6.50803929747    1.48054676798    5.23594786729    4.00000000000
      6.50803929747    1.48054676798    5.23594786729    4.00000000000
      6.50803929747   -1.48054676798    5.23594786729    4.00000000000
     -6.50803929747   -1.48054676798    5.23594786729    4.00000000000
      0.00000000000    0.00000000000    8.48996751602    4.00000000000
     -3.25401964873    5.92218707193    5.23594786729    4.00000000000
      3.25401964873    5.92218707193    5.23594786729    4.00000000000
      3.25401964873   -5.92218707193    5.23594786729    4.00000000000
     -3.25401964873   -5.92218707193    5.23594786729    4.00000000000
     -1.27209143018    1.48054676798    8.48996751602   -2.00000000000
      1.27209143018    1.48054676798    8.48996751602   -2.00000000000
      1.27209143018   -1.48054676798    8.48996751602   -2.00000000000
     -1.27209143018   -1.48054676798    8.48996751602   -2.00000000000
     -8.48996751602    1.48054676798   -1.27209143018   -2.00000000000
      8.48996751602    1.48054676798   -1.27209143018   -2.00000000000
      8.48996751602   -1.48054676798   -1.27209143018   -2.00000000000
     -8.48996751602   -1.48054676798   -1.27209143018   -2.00000000000
     -4.52611107891    7.40273383991   -1.27209143018   -2.00000000000
      4.52611107891    7.40273383991   -1.27209143018   -2.00000000000
      4.52611107891   -7.40273383991   -1.27209143018   -2.00000000000
     -4.52611107891   -7.40273383991   -1.27209143018   -2.00000000000
     -1.27209143018    7.40273383991   -4.52611107891   -2.00000000000
      1.27209143018    7.40273383991   -4.52611107891   -2.00000000000
      1.27209143018   -7.40273383991   -4.52611107891   -2.00000000000
     -1.27209143018   -7.40273383991   -4.52611107891   -2.00000000000
      0.00000000000    5.92218707193    6.50803929747   -2.00000000000
      0.00000000000   -5.92218707193    6.50803929747   -2.00000000000
     -6.50803929747    5.92218707193    0.00000000000   -2.00000000000
      6.50803929747    5.92218707193    0.00000000000   -2.00000000000
      6.50803929747   -5.92218707193    0.00000000000   -2.00000000000
     -6.50803929747   -5.92218707193    0.00000000000   -2.00000000000
      0.00000000000    5.92218707193   -6.50803929747   -2.00000000000
      0.00000000000   -5.92218707193   -6.50803929747   -2.00000000000
      0.00000000000    8.88328060789    0.00000000000   -2.00000000000
      0.00000000000   -8.88328060789    0.00000000000   -2.00000000000
     -3.25401964873    5.92218707193   -5.79820250908   -2.00000000000
      3.25401964873    5.92218707193   -5.79820250908   -2.00000000000
      3.25401964873   -5.92218707193   -5.79820250908   -2.00000000000
     -3.25401964873   -5.92218707193   -5.79820250908   -2.00000000000
     -3.25401964873    2.96109353596   -7.78013072764    4.00000000000
      3.25401964873    2.96109353596   -7.78013072764    4.00000000000
      3.25401964873   -2.96109353596   -7.78013072764    4.00000000000
     -3.25401964873   -2.96109353596   -7.78013072764    4.00000000000
      0.00000000000    4.44164030394   -7.78013072764    4.00000000000
      0.00000000000   -4.44164030394   -7.78013072764    4.00000000000
      0.00000000000    2.96109353596    8.48996751602    4.00000000000
      0.00000000000   -2.96109353596    8.48996751602    4.00000000000
     -6.50803929747    5.92218707193    1.98192821856    4.00000000000
      6.50803929747    5.92218707193    1.98192821856    4.00000000000
      6.50803929747   -5.92218707193    1.98192821856    4.00000000000
     -6.50803929747   -5.92218707193    1.98192821856    4.00000000000
     -0.00000000000    0.00000000000   -9.05222215782   -2.00000000000
      0.00000000000    7.40273383991    5.23594786729    4.00000000000
      0.00000000000   -7.40273383991    5.23594786729    4.00000000000
      0.00000000000    8.88328060789    1.98192821856    4.00000000000
      0.00000000000   -8.88328060789    1.98192821856    4.00000000000
     -7.78013072764    1.48054676798   -4.52611107891   -2.00000000000
      7.78013072764    1.48054676798   -4.52611107891   -2.00000000000
      7.78013072764   -1.48054676798   -4.52611107891   -2.00000000000
     -7.78013072764   -1.48054676798   -4.52611107891   -2.00000000000
     -4.52611107891    1.48054676798   -7.78013072764   -2.00000000000
      4.52611107891    1.48054676798   -7.78013072764   -2.00000000000
      4.52611107891   -1.48054676798   -7.78013072764   -2.00000000000
     -4.52611107891   -1.48054676798   -7.78013072764   -2.00000000000
     -6.50803929747    5.92218707193   -2.54418286035   -2.00000000000
      6.50803929747    5.92218707193   -2.54418286035   -2.00000000000
      6.50803929747   -5.92218707193   -2.54418286035   -2.00000000000
     -6.50803929747   -5.92218707193   -2.54418286035   -2.00000000000
     -7.78013072764    4.44164030394    1.98192821856   -2.00000000000
      7.78013072764    4.44164030394    1.98192821856   -2.00000000000
      7.78013072764   -4.44164030394    1.98192821856   -2.00000000000
     -7.78013072764   -4.44164030394    1.98192821856   -2.00000000000
     -1.98192821856    4.44164030394   -7.78013072764   -2.00000000000
      1.98192821856    4.44164030394   -7.78013072764   -2.00000000000
      1.98192821856   -4.44164030394   -7.78013072764   -2.00000000000
     -1.98192821856   -4.44164030394   -7.78013072764   -2.00000000000
     -6.50803929747    0.00000000000    6.50803929747   -2.00000000000
      6.50803929747    0.00000000000    6.50803929747   -2.00000000000
     -6.50803929747    0.00000000000   -6.50803929747   -2.00000000000
      6.50803929747    0.00000000000   -6.50803929747   -2.00000000000
     -3.25401964873    1.48054676798    8.48996751602    4.00000000000
      3.25401964873    1.48054676798    8.48996751602    4.00000000000
      3.25401964873   -1.48054676798    8.48996751602    4.00000000000
     -3.25401964873   -1.48054676798    8.48996751602    4.00000000000
     -0.00000000000    8.88328060789   -2.54418286035   -2.00000000000
     -0.00000000000   -8.88328060789   -2.54418286035   -2.00000000000
     -3.25401964873    7.40273383991   -4.52611107891    4.00000000000
      3.25401964873    7.40273383991   -4.52611107891    4.00000000000
      3.25401964873   -7.40273383991   -4.52611107891    4.00000000000
     -3.25401964873   -7.40273383991   -4.52611107891    4.00000000000
     -1.98192821856    7.40273383991    5.23594786729   -2.00000000000
      1.98192821856    7.40273383991    5.23594786729   -2.00000000000
      1.98192821856   -7.40273383991    5.23594786729   -2.00000000000
     -1.98192821856   -7.40273383991    5.23594786729   -2.00000000000
     -5.23594786729    7.40273383991    1.98192821856   -2.00000000000
      5.23594786729    7.40273383991    1.98192821856   -2.00000000000
      5.23594786729   -7.40273383991    1.98192821856   -2.00000000000
     -5.23594786729   -7.40273383991    1.98192821856   -2.00000000000
     -6.50803929747    4.44164030394    5.23594786729    4.00000000000
      6.50803929747    4.44164030394    5.23594786729    4.00000000000
      6.50803929747   -4.44164030394    5.23594786729    4.00000000000
     -6.50803929747   -4.44164030394    5.23594786729    4.00000000000
     -3.25401964873    8.88328060789    0.70983678838   -2.00000000000
      3.25401964873    8.88328060789    0.70983678838   -2.00000000000
      3.25401964873   -8.88328060789    0.70983678838   -2.00000000000
     -3.25401964873   -8.88328060789    0.70983678838   -2.00000000000
     -0.00000000000    2.96109353596   -9.05222215782   -2.00000000000
     -0.00000000000   -2.96109353596   -9.05222215782   -2.00000000000
     -3.25401964873    8.88328060789   -1.27209143018    4.00000000000
      3.25401964873    8.88328060789   -1.27209143018    4.00000000000
      3.25401964873   -8.88328060789   -1.27209143018    4.00000000000
     -3.25401964873   -8.88328060789   -1.27209143018    4.00000000000
     -6.50803929747    5.92218707193    3.96385643712   -2.00000000000
      6.50803929747    5.92218707193    3.96385643712   -2.00000000000
      6.50803929747   -5.92218707193    3.96385643712   -2.00000000000
     -6.50803929747   -5.92218707193    3.96385643712   -2.00000000000
     -1.27209143018    4.44164030394    8.48996751602   -2.00000000000
      1.27209143018    4.44164030394    8.48996751602   -2.00000000000
      1.27209143018   -4.44164030394    8.48996751602   -2.00000000000
     -1.27209143018   -4.44164030394    8.48996751602   -2.00000000000
     -8.48996751602    4.44164030394   -1.27209143018   -2.00000000000
      8.48996751602    4.44164030394   -1.27209143018   -2.00000000000
      8.48996751602   -4.44164030394   -1.27209143018   -2.00000000000
     -8.48996751602   -4.44164030394   -1.27209143018   -2.00000000000
     -6.50803929747    2.96109353596    6.50803929747   -2.00000000000
      6.50803929747    2.96109353596    6.50803929747   -2.00000000000
      6.50803929747   -2.96109353596    6.50803929747   -2.00000000000
     -6.50803929747   -2.96109353596    6.50803929747   -2.00000000000
     -6.50803929747    2.96109353596   -6.50803929747   -2.00000000000
      6.50803929747    2.96109353596   -6.50803929747   -2.00000000000
      6.50803929747   -2.96109353596   -6.50803929747   -2.00000000000
     -6.50803929747   -2.96109353596   -6.50803929747   -2.00000000000
     -0.00000000000    8.88328060789    3.96385643712   -2.00000000000
     -0.00000000000   -8.88328060789    3.96385643712   -2.00000000000
     -9.76205894620    0.00000000000    0.70983678838   -2.00000000000
      9.76205894620    0.00000000000    0.70983678838   -2.00000000000
     -9.76205894620    0.00000000000   -1.27209143018    4.00000000000
      9.76205894620    0.00000000000   -1.27209143018    4.00000000000
     -3.25401964873    5.92218707193    7.21787608585   -2.00000000000
      3.25401964873    5.92218707193    7.21787608585   -2.00000000000
      3.25401964873   -5.92218707193    7.21787608585   -2.00000000000
     -3.25401964873   -5.92218707193    7.21787608585   -2.00000000000
     -6.50803929747    5.92218707193   -4.52611107891    4.00000000000
      6.50803929747    5.92218707193   -4.52611107891    4.00000000000
      6.50803929747   -5.92218707193   -4.52611107891    4.00000000000
     -6.50803929747   -5.92218707193   -4.52611107891    4.00000000000
     -6.50803929747    7.40273383991   -1.27209143018    4.00000000000
      6.50803929747    7.40273383991   -1.27209143018    4.00000000000
      6.50803929747   -7.40273383991   -1.27209143018    4.00000000000
     -6.50803929747   -7.40273383991   -1.27209143018    4.00000000000
      0.00000000000    8.88328060789   -4.52611107891    4.00000000000
      0.00000000000   -8.88328060789   -4.52611107891    4.00000000000
     -3.25401964873    8.88328060789    3.25401964873   -2.00000000000
      3.25401964873    8.88328060789    3.25401964873   -2.00000000000
      3.25401964873   -8.88328060789    3.25401964873   -2.00000000000
     -3.25401964873   -8.88328060789    3.25401964873   -2.00000000000
     -3.25401964873    8.88328060789   -3.25401964873   -2.00000000000
      3.25401964873    8.88328060789   -3.25401964873   -2.00000000000
      3.25401964873   -8.88328060789   -3.25401964873   -2.00000000000
     -3.25401964873   -8.88328060789   -3.25401964873   -2.00000000000
     -7.78013072764    4.44164030394   -4.52611107891   -2.00000000000
      7.78013072764    4.44164030394   -4.52611107891   -2.00000000000
      7.78013072764   -4.44164030394   -4.52611107891   -2.00000000000
     -7.78013072764   -4.44164030394   -4.52611107891   -2.00000000000
     -4.52611107891    4.44164030394   -7.78013072764   -2.00000000000
      4.52611107891    4.44164030394   -7.78013072764   -2.00000000000
      4.52611107891   -4.44164030394   -7.78013072764   -2.00000000000
     -4.52611107891   -4.44164030394   -7.78013072764   -2.00000000000
     -9.76205894620    1.48054676798    1.98192821856    4.00000000000
      9.76205894620    1.48054676798    1.98192821856    4.00000000000
      9.76205894620   -1.48054676798    1.98192821856    4.00000000000
     -9.76205894620   -1.48054676798    1.98192821856    4.00000000000
     -5.23594786729    1.48054676798    8.48996751602   -2.00000000000
      5.23594786729    1.48054676798    8.48996751602   -2.00000000000
      5.23594786729   -1.48054676798    8.48996751602   -2.00000000000
     -5.23594786729   -1.48054676798    8.48996751602   -2.00000000000
     -8.48996751602    1.48054676798    5.23594786729   -2.00000000000
      8.48996751602    1.48054676798    5.23594786729   -2.00000000000
      8.48996751602   -1.48054676798    5.23594786729   -2.00000000000
     -8.48996751602   -1.48054676798    5.23594786729   -2.00000000000
     -3.25401964873    4.44164030394    8.48996751602    4.00000000000
      3.25401964873    4.44164030394    8.48996751602    4.00000000000
      3.25401964873   -4.44164030394    8.48996751602    4.00000000000
     -3.25401964873   -4.44164030394    8.48996751602    4.00000000000
     -4.52611107891    7.40273383991    5.23594786729   -2.00000000000
      4.52611107891    7.40273383991    5.23594786729   -2.00000000000
      4.52611107891   -7.40273383991    5.23594786729   -2.00000000000
     -4.52611107891   -7.40273383991    5.23594786729   -2.00000000000
     -5.23594786729    7.40273383991   -4.52611107891   -2.00000000000
      5.23594786729    7.40273383991   -4.52611107891   -2.00000000000
      5.23594786729   -7.40273383991   -4.52611107891   -2.00000000000
     -5.23594786729   -7.40273383991   -4.52611107891   -2.00000000000
     -9.76205894620    2.96109353596    0.70983678838   -2.00000000000
      9.76205894620    2.96109353596    0.70983678838   -2.00000000000
      9.76205894620   -2.96109353596    0.70983678838   -2.00000000000
     -9.76205894620   -2.96109353596    0.70983678838   -2.00000000000
     -6.50803929747    1.48054676798   -7.78013072764    4.00000000000
      6.50803929747    1.48054676798   -7.78013072764    4.00000000000
      6.50803929747   -1.48054676798   -7.78013072764    4.00000000000
     -6.50803929747   -1.48054676798   -7.78013072764    4.00000000000
     -9.76205894620    2.96109353596   -1.27209143018    4.00000000000
      9.76205894620    2.96109353596   -1.27209143018    4.00000000000
      9.76205894620   -2.96109353596   -1.27209143018    4.00000000000
     -9.76205894620   -2.96109353596   -1.27209143018    4.00000000000
     -3.25401964873    0.00000000000    9.76205894620   -2.00000000000
      3.25401964873    0.00000000000    9.76205894620   -2.00000000000
     -9.76205894620    0.00000000000    3.25401964873   -2.00000000000
      9.76205894620    0.00000000000    3.25401964873   -2.00000000000
     -9.76205894620    0.00000000000   -3.25401964873   -2.00000000000
      9.76205894620    0.00000000000   -3.25401964873   -2.00000000000
     -3.25401964873    0.00000000000   -9.76205894620   -2.00000000000
      3.25401964873    0.00000000000   -9.76205894620   -2.00000000000
     -3.25401964873    5.92218707193   -7.78013072764    4.00000000000
      3.25401964873    5.92218707193   -7.78013072764    4.00000000000
      3.25401964873   -5.92218707193   -7.78013072764    4.00000000000
     -3.25401964873   -5.92218707193   -7.78013072764    4.00000000000
      0.00000000000    5.92218707193    8.48996751602    4.00000000000
      0.00000000000   -5.92218707193    8.48996751602    4.00000000000
      0.00000000000   10.36382737587   -1.27209143018    4.00000000000
      0.00000000000  -10.36382737587   -1.27209143018    4.00000000000
     -0.00000000000    0.00000000000   10.47189573458   -2.00000000000
     -1.27209143018   10.36382737587    1.98192821856   -2.00000000000
      1.27209143018   10.36382737587    1.98192821856   -2.00000000000
      1.27209143018  -10.36382737587    1.98192821856   -2.00000000000
     -1.27209143018  -10.36382737587    1.98192821856   -2.00000000000
     -1.98192821856   10.36382737587   -1.27209143018   -2.00000000000
      1.98192821856   10.36382737587   -1.27209143018   -2.00000000000
      1.98192821856  -10.36382737587   -1.27209143018   -2.00000000000
     -1.98192821856  -10.36382737587   -1.27209143018   -2.00000000000
     -6.50803929747    0.00000000000    8.48996751602    4.00000000000
      6.50803929747    0.00000000000    8.48996751602    4.00000000000
     -3.25401964873    2.96109353596    9.76205894620   -2.00000000000
      3.25401964873    2.96109353596    9.76205894620   -2.00000000000
      3.25401964873   -2.96109353596    9.76205894620   -2.00000000000
     -3.25401964873   -2.96109353596    9.76205894620   -2.00000000000
     -9.76205894620    2.96109353596    3.25401964873   -2.00000000000
      9.76205894620    2.96109353596    3.25401964873   -2.00000000000
      9.76205894620   -2.96109353596    3.25401964873   -2.00000000000
     -9.76205894620   -2.96109353596    3.25401964873   -2.00000000000
     -9.76205894620    2.96109353596   -3.25401964873   -2.00000000000
      9.76205894620    2.96109353596   -3.25401964873   -2.00000000000
      9.76205894620   -2.96109353596   -3.25401964873   -2.00000000000
     -9.76205894620   -2.96109353596   -3.25401964873   -2.00000000000
     -3.25401964873    2.96109353596   -9.76205894620   -2.00000000000
      3.25401964873    2.96109353596   -9.76205894620   -2.00000000000
      3.25401964873   -2.96109353596   -9.76205894620   -2.00000000000
     -3.25401964873   -2.96109353596   -9.76205894620   -2.00000000000
      0.00000000000    7.40273383991   -7.78013072764    4.00000000000
      0.00000000000   -7.40273383991   -7.78013072764    4.00000000000
     -3.25401964873    8.88328060789    5.23594786729    4.00000000000
      3.25401964873    8.88328060789    5.23594786729    4.00000000000
      3.25401964873   -8.88328060789    5.23594786729    4.00000000000
     -3.25401964873   -8.88328060789    5.23594786729    4.00000000000
     -0.00000000000    5.92218707193   -9.05222215782   -2.00000000000
     -0.00000000000   -5.92218707193   -9.05222215782   -2.00000000000
     -9.76205894620    1.48054676798   -4.52611107891    4.00000000000
      9.76205894620    1.48054676798   -4.52611107891    4.00000000000
      9.76205894620   -1.48054676798   -4.52611107891    4.00000000000
     -9.76205894620   -1.48054676798   -4.52611107891    4.00000000000
     -0.00000000000    2.96109353596   10.47189573458   -2.00000000000
     -0.00000000000   -2.96109353596   10.47189573458   -2.00000000000
     -9.76205894620    4.44164030394    1.98192821856    4.00000000000
      9.76205894620    4.44164030394    1.98192821856    4.00000000000
      9.76205894620   -4.44164030394    1.98192821856    4.00000000000
     -9.76205894620   -4.44164030394    1.98192821856    4.00000000000
     -5.23594786729    4.44164030394    8.48996751602   -2.00000000000
      5.23594786729    4.44164030394    8.48996751602   -2.00000000000
      5.23594786729   -4.44164030394    8.48996751602   -2.00000000000
     -5.23594786729   -4.44164030394    8.48996751602   -2.00000000000
     -8.48996751602    4.44164030394    5.23594786729   -2.00000000000
      8.48996751602    4.44164030394    5.23594786729   -2.00000000000
      8.48996751602   -4.44164030394    5.23594786729   -2.00000000000
     -8.48996751602   -4.44164030394    5.23594786729   -2.00000000000
     -7.78013072764    7.40273383991    1.98192821856   -2.00000000000
      7.78013072764    7.40273383991    1.98192821856   -2.00000000000
      7.78013072764   -7.40273383991    1.98192821856   -2.00000000000
     -7.78013072764   -7.40273383991    1.98192821856   -2.00000000000
     -1.98192821856    7.40273383991   -7.78013072764   -2.00000000000
      1.98192821856    7.40273383991   -7.78013072764   -2.00000000000
      1.98192821856   -7.40273383991   -7.78013072764   -2.00000000000
     -1.98192821856   -7.40273383991   -7.78013072764   -2.00000000000
     -6.50803929747    5.92218707193    6.50803929747   -2.00000000000
      6.50803929747    5.92218707193    6.50803929747   -2.00000000000
      6.50803929747   -5.92218707193    6.50803929747   -2.00000000000
     -6.50803929747   -5.92218707193    6.50803929747   -2.00000000000
     -6.50803929747    5.92218707193   -6.50803929747   -2.00000000000
      6.50803929747    5.92218707193   -6.50803929747   -2.00000000000
      6.50803929747   -5.92218707193   -6.50803929747   -2.00000000000
     -6.50803929747   -5.92218707193   -6.50803929747   -2.00000000000
      0.00000000000    8.88328060789    6.50803929747   -2.00000000000
      0.00000000000   -8.88328060789    6.50803929747   -2.00000000000
     -6.50803929747    8.88328060789    0.00000000000   -2.00000000000
      6.50803929747    8.88328060789    0.00000000000   -2.00000000000
      6.50803929747   -8.88328060789    0.00000000000   -2.00000000000
     -6.50803929747   -8.88328060789    0.00000000000   -2.00000000000
      0.00000000000    8.88328060789   -6.50803929747   -2.00000000000
      0.00000000000   -8.88328060789   -6.50803929747   -2.00000000000
      0.00000000000    0.00000000000  -11.03415037637    4.00000000000
     -3.25401964873   10.36382737587    1.98192821856    4.00000000000
      3.25401964873   10.36382737587    1.98192821856    4.00000000000
      3.25401964873  -10.36382737587    1.98192821856    4.00000000000
     -3.25401964873  -10.36382737587    1.98192821856    4.00000000000
     -6.50803929747    4.44164030394   -7.78013072764    4.00000000000
      6.50803929747    4.44164030394   -7.78013072764    4.00000000000
      6.50803929747   -4.44164030394   -7.78013072764    4.00000000000
     -6.50803929747   -4.44164030394   -7.78013072764    4.00000000000
     -9.76205894620    0.00000000000    5.23594786729    4.00000000000
      9.76205894620    0.00000000000    5.23594786729    4.00000000000
     -3.25401964873    8.88328060789   -5.79820250908   -2.00000000000
      3.25401964873    8.88328060789   -5.79820250908   -2.00000000000
      3.25401964873   -8.88328060789   -5.79820250908   -2.00000000000
     -3.25401964873   -8.88328060789   -5.79820250908   -2.00000000000
     -6.50803929747    2.96109353596    8.48996751602    4.00000000000
      6.50803929747    2.96109353596    8.48996751602    4.00000000000
      6.50803929747   -2.96109353596    8.48996751602    4.00000000000
     -6.50803929747   -2.96109353596    8.48996751602    4.00000000000
     -6.50803929747    0.00000000000   -9.05222215782   -2.00000000000
      6.50803929747    0.00000000000   -9.05222215782   -2.00000000000
     -6.50803929747    7.40273383991    5.23594786729    4.00000000000
      6.50803929747    7.40273383991    5.23594786729    4.00000000000
      6.50803929747   -7.40273383991    5.23594786729    4.00000000000
     -6.50803929747   -7.40273383991    5.23594786729    4.00000000000
     -6.50803929747    8.88328060789    1.98192821856    4.00000000000
      6.50803929747    8.88328060789    1.98192821856    4.00000000000
      6.50803929747   -8.88328060789    1.98192821856    4.00000000000
     -6.50803929747   -8.88328060789    1.98192821856    4.00000000000
    -11.03415037637    1.48054676798   -1.27209143018   -2.00000000000
     11.03415037637    1.48054676798   -1.27209143018   -2.00000000000
     11.03415037637   -1.48054676798   -1.27209143018   -2.00000000000
    -11.03415037637   -1.48054676798   -1.27209143018   -2.00000000000
     -1.27209143018    1.48054676798  -11.03415037637   -2.00000000000
      1.27209143018    1.48054676798  -11.03415037637   -2.00000000000
      1.27209143018   -1.48054676798  -11.03415037637   -2.00000000000
     -1.27209143018   -1.48054676798  -11.03415037637   -2.00000000000
     -6.50803929747    8.88328060789   -2.54418286035   -2.00000000000
      6.50803929747    8.88328060789   -2.54418286035   -2.00000000000
      6.50803929747   -8.88328060789   -2.54418286035   -2.00000000000
     -6.50803929747   -8.88328060789   -2.54418286035   -2.00000000000
     -1.27209143018    7.40273383991    8.48996751602   -2.00000000000
      1.27209143018    7.40273383991    8.48996751602   -2.00000000000
      1.27209143018   -7.40273383991    8.48996751602   -2.00000000000
     -1.27209143018   -7.40273383991    8.48996751602   -2.00000000000
     -8.48996751602    7.40273383991   -1.27209143018   -2.00000000000
      8.48996751602    7.40273383991   -1.27209143018   -2.00000000000
      8.48996751602   -7.40273383991   -1.27209143018   -2.00000000000
     -8.48996751602   -7.40273383991   -1.27209143018   -2.00000000000
     -9.76205894620    0.00000000000   -5.79820250908   -2.00000000000
      9.76205894620    0.00000000000   -5.79820250908   -2.00000000000
     -4.52611107891   10.36382737587   -1.27209143018   -2.00000000000
      4.52611107891   10.36382737587   -1.27209143018   -2.00000000000
      4.52611107891  -10.36382737587   -1.27209143018   -2.00000000000
     -4.52611107891  -10.36382737587   -1.27209143018   -2.00000000000
     -1.27209143018   10.36382737587   -4.52611107891   -2.00000000000
      1.27209143018   10.36382737587   -4.52611107891   -2.00000000000
      1.27209143018  -10.36382737587   -4.52611107891   -2.00000000000
     -1.27209143018  -10.36382737587   -4.52611107891   -2.00000000000
      0.00000000000    2.96109353596  -11.03415037637    4.00000000000
      0.00000000000   -2.96109353596  -11.03415037637    4.00000000000
     -9.76205894620    5.92218707193    0.70983678838   -2.00000000000
      9.76205894620    5.92218707193    0.70983678838   -2.00000000000
      9.76205894620   -5.92218707193    0.70983678838   -2.00000000000
     -9.76205894620   -5.92218707193    0.70983678838   -2.00000000000
     -9.76205894620    2.96109353596    5.23594786729    4.00000000000
      9.76205894620    2.96109353596    5.23594786729    4.00000000000
      9.76205894620   -2.96109353596    5.23594786729    4.00000000000
     -9.76205894620   -2.96109353596    5.23594786729    4.00000000000
     -9.76205894620    5.92218707193   -1.27209143018    4.00000000000
      9.76205894620    5.92218707193   -1.27209143018    4.00000000000
      9.76205894620   -5.92218707193   -1.27209143018    4.00000000000
     -9.76205894620   -5.92218707193   -1.27209143018    4.00000000000
     -6.50803929747    2.96109353596   -9.05222215782   -2.00000000000
      6.50803929747    2.96109353596   -9.05222215782   -2.00000000000
      6.50803929747   -2.96109353596   -9.05222215782   -2.00000000000
     -6.50803929747   -2.96109353596   -9.05222215782   -2.00000000000
     -3.25401964873    1.48054676798  -11.03415037637    4.00000000000
      3.25401964873    1.48054676798  -11.03415037637    4.00000000000
      3.25401964873   -1.48054676798  -11.03415037637    4.00000000000
     -3.25401964873   -1.48054676798  -11.03415037637    4.00000000000
     -7.78013072764    1.48054676798    8.48996751602   -2.00000000000
      7.78013072764    1.48054676798    8.48996751602   -2.00000000000
      7.78013072764   -1.48054676798    8.48996751602   -2.00000000000
     -7.78013072764   -1.48054676798    8.48996751602   -2.00000000000
      0.00000000000   10.36382737587    5.23594786729    4.00000000000
      0.00000000000  -10.36382737587    5.23594786729    4.00000000000
     -9.76205894620    4.44164030394   -4.52611107891    4.00000000000
      9.76205894620    4.44164030394   -4.52611107891    4.00000000000
      9.76205894620   -4.44164030394   -4.52611107891    4.00000000000
     -9.76205894620   -4.44164030394   -4.52611107891    4.00000000000
     -7.78013072764    7.40273383991   -4.52611107891   -2.00000000000
      7.78013072764    7.40273383991   -4.52611107891   -2.00000000000
      7.78013072764   -7.40273383991   -4.52611107891   -2.00000000000
     -7.78013072764   -7.40273383991   -4.52611107891   -2.00000000000
     -4.52611107891    7.40273383991   -7.78013072764   -2.00000000000
      4.52611107891    7.40273383991   -7.78013072764   -2.00000000000
      4.52611107891   -7.40273383991   -7.78013072764   -2.00000000000
     -4.52611107891   -7.40273383991   -7.78013072764   -2.00000000000
     -6.50803929747    8.88328060789    3.96385643712   -2.00000000000
      6.50803929747    8.88328060789    3.96385643712   -2.00000000000
      6.50803929747   -8.88328060789    3.96385643712   -2.00000000000
     -6.50803929747   -8.88328060789    3.96385643712   -2.00000000000
     -3.25401964873    7.40273383991    8.48996751602    4.00000000000
      3.25401964873    7.40273383991    8.48996751602    4.00000000000
      3.25401964873   -7.40273383991    8.48996751602    4.00000000000
     -3.25401964873   -7.40273383991    8.48996751602    4.00000000000
     -9.76205894620    2.96109353596   -5.79820250908   -2.00000000000
      9.76205894620    2.96109353596   -5.79820250908   -2.00000000000
      9.76205894620   -2.96109353596   -5.79820250908   -2.00000000000
     -9.76205894620   -2.96109353596   -5.79820250908   -2.00000000000
     -3.25401964873   10.36382737587   -4.52611107891    4.00000000000
      3.25401964873   10.36382737587   -4.52611107891    4.00000000000
      3.25401964873  -10.36382737587   -4.52611107891    4.00000000000
     -3.25401964873  -10.36382737587   -4.52611107891    4.00000000000
     -5.23594786729   10.36382737587    1.98192821856   -2.00000000000
      5.23594786729   10.36382737587    1.98192821856   -2.00000000000
      5.23594786729  -10.36382737587    1.98192821856   -2.00000000000
     -5.23594786729  -10.36382737587    1.98192821856   -2.00000000000
      0.00000000000    1.48054676798   11.74398716476    4.00000000000
      0.00000000000   -1.48054676798   11.74398716476    4.00000000000
      0.00000000000   11.84437414385    0.00000000000   -2.00000000000
      0.00000000000  -11.84437414385    0.00000000000   -2.00000000000
     -3.25401964873    5.92218707193    9.76205894620   -2.00000000000
      3.25401964873    5.92218707193    9.76205894620   -2.00000000000
      3.25401964873   -5.92218707193    9.76205894620   -2.00000000000
     -3.25401964873   -5.92218707193    9.76205894620   -2.00000000000
     -9.76205894620    5.92218707193    3.25401964873   -2.00000000000
      9.76205894620    5.92218707193    3.25401964873   -2.00000000000
      9.76205894620   -5.92218707193    3.25401964873   -2.00000000000
     -9.76205894620   -5.92218707193    3.25401964873   -2.00000000000
     -9.76205894620    5.92218707193   -3.25401964873   -2.00000000000
      9.76205894620    5.92218707193   -3.25401964873   -2.00000000000
      9.76205894620   -5.92218707193   -3.25401964873   -2.00000000000
     -9.76205894620   -5.92218707193   -3.25401964873   -2.00000000000
     -3.25401964873    5.92218707193   -9.76205894620   -2.00000000000
      3.25401964873    5.92218707193   -9.76205894620   -2.00000000000
      3.25401964873   -5.92218707193   -9.76205894620   -2.00000000000
     -3.25401964873   -5.92218707193   -9.76205894620   -2.00000000000
     -3.25401964873    8.88328060789    7.21787608585   -2.00000000000
      3.25401964873    8.88328060789    7.21787608585   -2.00000000000
      3.25401964873   -8.88328060789    7.21787608585   -2.00000000000
     -3.25401964873   -8.88328060789    7.21787608585   -2.00000000000
     -6.50803929747    8.88328060789   -4.52611107891    4.00000000000
      6.50803929747    8.88328060789   -4.52611107891    4.00000000000
      6.50803929747   -8.88328060789   -4.52611107891    4.00000000000
     -6.50803929747   -8.88328060789   -4.52611107891    4.00000000000
    -11.03415037637    4.44164030394   -1.27209143018   -2.00000000000
     11.03415037637    4.44164030394   -1.27209143018   -2.00000000000
     11.03415037637   -4.44164030394   -1.27209143018   -2.00000000000
    -11.03415037637   -4.44164030394   -1.27209143018   -2.00000000000
     -1.27209143018    4.44164030394  -11.03415037637   -2.00000000000
      1.27209143018    4.44164030394  -11.03415037637   -2.00000000000
      1.27209143018   -4.44164030394  -11.03415037637   -2.00000000000
     -1.27209143018   -4.44164030394  -11.03415037637   -2.00000000000
     -1.98192821856    1.48054676798   11.74398716476   -2.00000000000
      1.98192821856    1.48054676798   11.74398716476   -2.00000000000
      1.98192821856   -1.48054676798   11.74398716476   -2.00000000000
     -1.98192821856   -1.48054676798   11.74398716476   -2.00000000000
    -11.74398716476    1.48054676798    1.98192821856   -2.00000000000
     11.74398716476    1.48054676798    1.98192821856   -2.00000000000
     11.74398716476   -1.48054676798    1.98192821856   -2.00000000000
    -11.74398716476   -1.48054676798    1.98192821856   -2.00000000000
      0.00000000000   11.84437414385    1.98192821856    4.00000000000
      0.00000000000  -11.84437414385    1.98192821856    4.00000000000
     -0.00000000000    5.92218707193   10.47189573458   -2.00000000000
     -0.00000000000   -5.92218707193   10.47189573458   -2.00000000000
     -0.00000000000   11.84437414385   -2.54418286035   -2.00000000000
     -0.00000000000  -11.84437414385   -2.54418286035   -2.00000000000
     -3.25401964873    0.00000000000   11.74398716476    4.00000000000
      3.25401964873    0.00000000000   11.74398716476    4.00000000000
     -6.50803929747    5.92218707193    8.48996751602    4.00000000000
      6.50803929747    5.92218707193    8.48996751602    4.00000000000
      6.50803929747   -5.92218707193    8.48996751602    4.00000000000
     -6.50803929747   -5.92218707193    8.48996751602    4.00000000000
     -3.25401964873    8.88328060789   -7.78013072764    4.00000000000
      3.25401964873    8.88328060789   -7.78013072764    4.00000000000
      3.25401964873   -8.88328060789   -7.78013072764    4.00000000000
     -3.25401964873   -8.88328060789   -7.78013072764    4.00000000000
      0.00000000000    8.88328060789    8.48996751602    4.00000000000
      0.00000000000   -8.88328060789    8.48996751602    4.00000000000
    -11.03415037637    1.48054676798    5.23594786729   -2.00000000000
     11.03415037637    1.48054676798    5.23594786729   -2.00000000000
     11.03415037637   -1.48054676798    5.23594786729   -2.00000000000
    -11.03415037637   -1.48054676798    5.23594786729   -2.00000000000
     -3.25401964873   11.84437414385    0.70983678838   -2.00000000000
      3.25401964873   11.84437414385    0.70983678838   -2.00000000000
      3.25401964873  -11.84437414385    0.70983678838   -2.00000000000
     -3.25401964873  -11.84437414385    0.70983678838   -2.00000000000
     -6.50803929747   10.36382737587   -1.27209143018    4.00000000000
      6.50803929747   10.36382737587   -1.27209143018    4.00000000000
      6.50803929747  -10.36382737587   -1.27209143018    4.00000000000
     -6.50803929747  -10.36382737587   -1.27209143018    4.00000000000
     -3.25401964873    4.44164030394  -11.03415037637    4.00000000000
      3.25401964873    4.44164030394  -11.03415037637    4.00000000000
      3.25401964873   -4.44164030394  -11.03415037637    4.00000000000
     -3.25401964873   -4.44164030394  -11.03415037637    4.00000000000
     -3.25401964873   11.84437414385   -1.27209143018    4.00000000000
      3.25401964873   11.84437414385   -1.27209143018    4.00000000000
      3.25401964873  -11.84437414385   -1.27209143018    4.00000000000
     -3.25401964873  -11.84437414385   -1.27209143018    4.00000000000
     -9.76205894620    7.40273383991    1.98192821856    4.00000000000
      9.76205894620    7.40273383991    1.98192821856    4.00000000000
      9.76205894620   -7.40273383991    1.98192821856    4.00000000000
     -9.76205894620   -7.40273383991    1.98192821856    4.00000000000
     -5.23594786729   10.36382737587   -4.52611107891   -2.00000000000
      5.23594786729   10.36382737587   -4.52611107891   -2.00000000000
      5.23594786729  -10.36382737587   -4.52611107891   -2.00000000000
     -5.23594786729  -10.36382737587   -4.52611107891   -2.00000000000
      0.00000000000    5.92218707193  -11.03415037637    4.00000000000
      0.00000000000   -5.92218707193  -11.03415037637    4.00000000000
     -3.25401964873    2.96109353596   11.74398716476    4.00000000000
      3.25401964873    2.96109353596   11.74398716476    4.00000000000
      3.25401964873   -2.96109353596   11.74398716476    4.00000000000
     -3.25401964873   -2.96109353596   11.74398716476    4.00000000000
      0.00000000000    4.44164030394   11.74398716476    4.00000000000
      0.00000000000   -4.44164030394   11.74398716476    4.00000000000
     -6.50803929747    7.40273383991   -7.78013072764    4.00000000000
      6.50803929747    7.40273383991   -7.78013072764    4.00000000000
      6.50803929747   -7.40273383991   -7.78013072764    4.00000000000
     -6.50803929747   -7.40273383991   -7.78013072764    4.00000000000
     -4.52611107891    1.48054676798   11.74398716476   -2.00000000000
      4.52611107891    1.48054676798   11.74398716476   -2.00000000000
      4.52611107891   -1.48054676798   11.74398716476   -2.00000000000
     -4.52611107891   -1.48054676798   11.74398716476   -2.00000000000
      0.00000000000   11.84437414385   -4.52611107891    4.00000000000
      0.00000000000  -11.84437414385   -4.52611107891    4.00000000000
     -0.00000000000    8.88328060789   -9.05222215782   -2.00000000000
     -0.00000000000   -8.88328060789   -9.05222215782   -2.00000000000
     -3.25401964873   11.84437414385   -3.25401964873   -2.00000000000
      3.25401964873   11.84437414385   -3.25401964873   -2.00000000000
      3.25401964873  -11.84437414385   -3.25401964873   -2.00000000000
     -3.25401964873  -11.84437414385   -3.25401964873   -2.00000000000
     -1.98192821856    4.44164030394   11.74398716476   -2.00000000000
      1.98192821856    4.44164030394   11.74398716476   -2.00000000000
      1.98192821856   -4.44164030394   11.74398716476   -2.00000000000
     -1.98192821856   -4.44164030394   11.74398716476   -2.00000000000
     -3.25401964873    0.00000000000  -12.30624180655   -2.00000000000
      3.25401964873    0.00000000000  -12.30624180655   -2.00000000000
      0.00000000000   10.36382737587   -7.78013072764    4.00000000000
      0.00000000000  -10.36382737587   -7.78013072764    4.00000000000
      0.00000000000    0.00000000000   13.01607859493   -2.00000000000
      0.00000000000    0.00000000000  -13.01607859493   -2.00000000000
     -9.76205894620    7.40273383991   -4.52611107891    4.00000000000
      9.76205894620    7.40273383991   -4.52611107891    4.00000000000
      9.76205894620   -7.40273383991   -4.52611107891    4.00000000000
     -9.76205894620   -7.40273383991   -4.52611107891    4.00000000000
     -3.25401964873    2.96109353596  -12.30624180655   -2.00000000000
      3.25401964873    2.96109353596  -12.30624180655   -2.00000000000
      3.25401964873   -2.96109353596  -12.30624180655   -2.00000000000
     -3.25401964873   -2.96109353596  -12.30624180655   -2.00000000000
     -1.98192821856   10.36382737587   -7.78013072764   -2.00000000000
      1.98192821856   10.36382737587   -7.78013072764   -2.00000000000
      1.98192821856  -10.36382737587   -7.78013072764   -2.00000000000
     -1.98192821856  -10.36382737587   -7.78013072764   -2.00000000000
     -9.76205894620    8.88328060789   -1.27209143018    4.00000000000
      9.76205894620    8.88328060789   -1.27209143018    4.00000000000
      9.76205894620   -8.88328060789   -1.27209143018    4.00000000000
[...]
 3086   A          5.972582       5.972582
 3087   A          6.003243       6.003243
 3088   A          6.022133       6.022133
 3089   A          6.029801       6.029801
 3090   A          6.032282       6.032282
 3091   A          6.039383       6.039383
 3092   A          6.047739       6.047739
 3093   A          6.095020       6.095020
 3094   A          6.110711       6.110711
 3095   A          6.310427       6.310427
 3096   A          6.311738       6.311738
 3097   A          6.312657       6.312657
 3098   A          6.316519       6.316519
 3099   A          6.330695       6.330695
 3100   A          6.331794       6.331794
 3101   A          6.336701       6.336701
 3102   A          6.337143       6.337143
 3103   A          6.340715       6.340715
 3104   A          6.342036       6.342036
 3105   A          6.345227       6.345227
 3106   A          6.348483       6.348483
 3107   A          6.349596       6.349596
 3108   A          6.352854       6.352854
 3109   A          6.355429       6.355429
 3110   A          6.355622       6.355622
 3111   A          6.357862       6.357862
 3112   A          6.359406       6.359406
 3113   A          6.365833       6.365833
 3114   A          6.370140       6.370140
 3115   A          6.372040       6.372040
 3116   A          6.372706       6.372706
 3117   A          6.375903       6.375903
 3118   A          6.378772       6.378772
 3119   A          6.380325       6.380325
 3120   A          6.380773       6.380773
 3121   A          6.382442       6.382442
 3122   A          6.385491       6.385491
 3123   A          6.386190       6.386190
 3124   A          6.387309       6.387309
 3125   A          6.391205       6.391205
 3126   A          6.392941       6.392941
 3127   A          6.396009       6.396009
 3128   A          6.400145       6.400145
 3129   A          6.400527       6.400527
 3130   A          6.402414       6.402414
 3131   A          6.403315       6.403315
 3132   A          6.409986       6.409986
 3133   A          6.413040       6.413040
 3134   A          6.414151       6.414151
 3135   A          6.417676       6.417676
 3136   A          6.420417       6.420417
 3137   A          6.425491       6.425491
 3138   A          6.426460       6.426460
 3139   A          6.429138       6.429138
 3140   A          6.429138       6.429138
 3141   A          6.432492       6.432492
 3142   A          6.438230       6.438230
 3143   A          6.439376       6.439376
 3144   A          6.444613       6.444613
 3145   A          6.447550       6.447550
 3146   A          6.447660       6.447660
 3147   A          6.450804       6.450804
 3148   A          6.452485       6.452485
 3149   A          6.457438       6.457438
 3150   A          6.459984       6.459984
 3151   A          6.461547       6.461547
 3152   A          6.462989       6.462989
 3153   A          6.463679       6.463679
 3154   A          6.466680       6.466680
 3155   A          6.468894       6.468894
 3156   A          6.471182       6.471182
 3157   A          6.475558       6.475558
 3158   A          6.478068       6.478068
 3159   A          6.478229       6.478229
 3160   A          6.478963       6.478963
 3161   A          6.480377       6.480377
 3162   A          6.483483       6.483483
 3163   A          6.487764       6.487764
 3164   A          6.492361       6.492361
 3165   A          6.507197       6.507197
 3166   A          6.508558       6.508558
 3167   A          6.516044       6.516044
 3168   A          6.519053       6.519053
 3169   A          6.519631       6.519631
 3170   A          6.530445       6.530445
 3171   A          6.538140       6.538140
 3172   A          6.556073       6.556073
 3173   A          6.556900       6.556900
 3174   A          6.566338       6.566338
 3175   A          6.567782       6.567782
 3176   A          6.569027       6.569027
 3177   A          6.570763       6.570763
 3178   A          6.578825       6.578825
 3179   A          6.586302       6.586302
 3180   A          6.587611       6.587611
 3181   A          6.590089       6.590089
 3182   A          6.591442       6.591442
 3183   A          6.596186       6.596186
 3184   A          6.597529       6.597529
 3185   A          6.599601       6.599601
 3186   A          6.602173       6.602173
 3187   A          6.603417       6.603417
 3188   A          6.604614       6.604614
 3189   A          6.609270       6.609270
 3190   A          6.611194       6.611194
 3191   A          6.612456       6.612456
 3192   A          6.616195       6.616195
 3193   A          6.616525       6.616525
 3194   A          6.617247       6.617247
 3195   A          6.617444       6.617444
 3196   A          6.618830       6.618830
 3197   A          6.620919       6.620919
 3198   A          6.622835       6.622835
 3199   A          6.623723       6.623723
 3200   A          6.625122       6.625122
 3201   A          6.626362       6.626362
 3202   A          6.627667       6.627667
 3203   A          6.629031       6.629031
 3204   A          6.633748       6.633748
 3205   A          6.636093       6.636093
 3206   A          6.637010       6.637010
 3207   A          6.640854       6.640854
 3208   A          6.642770       6.642770
 3209   A          6.643473       6.643473
 3210   A          6.645340       6.645340
 3211   A          6.648358       6.648358
 3212   A          6.650095       6.650095
 3213   A          6.650233       6.650233
 3214   A          6.653163       6.653163
 3215   A          6.656328       6.656328
 3216   A          6.657406       6.657406
 3217   A          6.657818       6.657818
 3218   A          6.661442       6.661442
 3219   A          6.662345       6.662345
 3220   A          6.663437       6.663437
 3221   A          6.667182       6.667182
 3222   A          6.667504       6.667504
 3223   A          6.667660       6.667660
 3224   A          6.668831       6.668831
 3225   A          6.672986       6.672986
 3226   A          6.673561       6.673561
 3227   A          6.673724       6.673724
 3228   A          6.674655       6.674655
 3229   A          6.675932       6.675932
 3230   A          6.679457       6.679457
 3231   A          6.685791       6.685791
 3232   A          6.686742       6.686742
 3233   A          6.689061       6.689061
 3234   A          6.691729       6.691729
 3235   A          6.694870       6.694870
 3236   A          6.695116       6.695116
 3237   A          6.696362       6.696362
 3238   A          6.700275       6.700275
 3239   A          6.706159       6.706159
 3240   A          6.707305       6.707305
 3241   A          6.707324       6.707324
 3242   A          6.707919       6.707919
 3243   A          6.710656       6.710656
 3244   A          6.713685       6.713685
 3245   A          6.717158       6.717158
 3246   A          6.717291       6.717291
 3247   A          6.717926       6.717926
 3248   A          6.720966       6.720966
 3249   A          6.724200       6.724200
 3250   A          6.725019       6.725019
 3251   A          6.727514       6.727514
 3252   A          6.730549       6.730549
 3253   A          6.731895       6.731895
 3254   A          6.734145       6.734145
 3255   A          6.737295       6.737295
 3256   A          6.737370       6.737370
 3257   A          6.739678       6.739678
 3258   A          6.740742       6.740742
 3259   A          6.742157       6.742157
 3260   A          6.744381       6.744381
 3261   A          6.745949       6.745949
 3262   A          6.746651       6.746651
 3263   A          6.750211       6.750211
 3264   A          6.752474       6.752474
 3265   A          6.753399       6.753399
 3266   A          6.755125       6.755125
 3267   A          6.757402       6.757402
 3268   A          6.759484       6.759484
 3269   A          6.761096       6.761096
 3270   A          6.762106       6.762106
 3271   A          6.763793       6.763793
 3272   A          6.764155       6.764155
 3273   A          6.769603       6.769603
 3274   A          6.774514       6.774514
 3275   A          6.775007       6.775007
 3276   A          6.778920       6.778920
 3277   A          6.781630       6.781630
 3278   A          6.784057       6.784057
 3279   A          6.784657       6.784657
 3280   A          6.785283       6.785283
 3281   A          6.787588       6.787588
 3282   A          6.787883       6.787883
 3283   A          6.791709       6.791709
 3284   A          6.797034       6.797034
 3285   A          6.798298       6.798298
 3286   A          6.805467       6.805467
 3287   A          6.813949       6.813949
 3288   A          6.818604       6.818604
 3289   A          6.819918       6.819918
 3290   A          6.820086       6.820086
 3291   A          6.824910       6.824910
 3292   A          6.826145       6.826145
 3293   A          6.827026       6.827026
 3294   A          6.833622       6.833622
 3295   A          6.835083       6.835083
 3296   A          6.837341       6.837341
 3297   A          6.840966       6.840966
 3298   A          6.845607       6.845607
 3299   A          6.846572       6.846572
 3300   A          6.854328       6.854328
 3301   A          6.855666       6.855666
 3302   A          6.858818       6.858818
 3303   A          6.859205       6.859205
 3304   A          6.864500       6.864500
 3305   A          6.864906       6.864906
 3306   A          6.867663       6.867663
 3307   A          6.869443       6.869443
 3308   A          6.870950       6.870950
 3309   A          6.873997       6.873997
 3310   A          6.877511       6.877511
 3311   A          6.881089       6.881089
 3312   A          6.883194       6.883194
 3313   A          6.884385       6.884385
 3314   A          6.886976       6.886976
 3315   A          6.888467       6.888467
 3316   A          6.890256       6.890256
 3317   A          6.891160       6.891160
 3318   A          6.893736       6.893736
 3319   A          6.895206       6.895206
 3320   A          6.896919       6.896919
 3321   A          6.902588       6.902588
 3322   A          6.903843       6.903843
 3323   A          6.908114       6.908114
 3324   A          6.909298       6.909298
 3325   A          6.911996       6.911996
 3326   A          6.914559       6.914559
 3327   A          6.916395       6.916395
 3328   A          6.917913       6.917913
 3329   A          6.918121       6.918121
 3330   A          6.920928       6.920928
 3331   A          6.921101       6.921101
 3332   A          6.922183       6.922183
 3333   A          6.924049       6.924049
 3334   A          6.925785       6.925785
 3335   A          6.925958       6.925958
 3336   A          6.927749       6.927749
 3337   A          6.929249       6.929249
 3338   A          6.933257       6.933257
 3339   A          6.933411       6.933411
 3340   A          6.933940       6.933940
 3341   A          6.934844       6.934844
 3342   A          6.937723       6.937723
 3343   A          6.939135       6.939135
 3344   A          6.941117       6.941117
 3345   A          6.944998       6.944998
 3346   A          6.945074       6.945074
 3347   A          6.948295       6.948295
 3348   A          6.948855       6.948855
 3349   A          6.954563       6.954563
 3350   A          6.956030       6.956030
 3351   A          6.956981       6.956981
 3352   A          6.961129       6.961129
 3353   A          6.962306       6.962306
 3354   A          6.965019       6.965019
 3355   A          6.966121       6.966121
 3356   A          6.970143       6.970143
 3357   A          6.970308       6.970308
 3358   A          6.970683       6.970683
 3359   A          6.970748       6.970748
 3360   A          6.971111       6.971111
 3361   A          6.976488       6.976488
 3362   A          6.977574       6.977574
 3363   A          6.978143       6.978143
 3364   A          6.983911       6.983911
 3365   A          6.984619       6.984619
 3366   A          6.990310       6.990310
 3367   A          6.992477       6.992477
 3368   A          6.994685       6.994685
 3369   A          6.994928       6.994928
 3370   A          6.999674       6.999674
 3371   A          7.000923       7.000923
 3372   A          7.006138       7.006138
 3373   A          7.007126       7.007126
 3374   A          7.007729       7.007729
 3375   A          7.009178       7.009178
 3376   A          7.012939       7.012939
 3377   A          7.013444       7.013444
 3378   A          7.014066       7.014066
 3379   A          7.017985       7.017985
 3380   A          7.020468       7.020468
 3381   A          7.021315       7.021315
 3382   A          7.021867       7.021867
 3383   A          7.022923       7.022923
 3384   A          7.026925       7.026925
 3385   A          7.029235       7.029235
 3386   A          7.033660       7.033660
 3387   A          7.036426       7.036426
 3388   A          7.045174       7.045174
 3389   A          7.045501       7.045501
 3390   A          7.053125       7.053125
 3391   A          7.058948       7.058948
 3392   A          7.059429       7.059429
 3393   A          7.070958       7.070958
 3394   A          7.086940       7.086940
 3395   A          7.091481       7.091481
 3396   A          7.100215       7.100215
 3397   A          7.104665       7.104665
 3398   A          7.105114       7.105114
 3399   A          7.112656       7.112656
 3400   A          7.115203       7.115203
 3401   A          7.116448       7.116448
 3402   A          7.131966       7.131966
 3403   A          7.136648       7.136648
 3404   A          7.140333       7.140333
 3405   A          7.147835       7.147835
 3406   A          7.156539       7.156539
 3407   A          7.161184       7.161184
 3408   A          7.169267       7.169267
 3409   A          7.173154       7.173154
 3410   A          7.173282       7.173282
 3411   A          7.179259       7.179259
 3412   A          7.186216       7.186216
 3413   A          7.193239       7.193239
 3414   A          7.200548       7.200548
 3415   A          7.206710       7.206710
 3416   A          7.214286       7.214286
 3417   A          7.214713       7.214713
 3418   A          7.222380       7.222380
 3419   A          7.224590       7.224590
 3420   A          7.228238       7.228238
 3421   A          7.242052       7.242052
 3422   A          7.255224       7.255224
 3423   A          7.256598       7.256598
 3424   A          7.259307       7.259307
 3425   A          7.264880       7.264880
 3426   A          7.266889       7.266889
 3427   A          7.270681       7.270681
 3428   A          7.277111       7.277111
 3429   A          7.287257       7.287257
 3430   A          7.291955       7.291955
 3431   A          7.303405       7.303405
 3432   A          7.320246       7.320246
 3433   A          7.321828       7.321828
 3434   A          7.347048       7.347048
 3435   A          7.349745       7.349745
 3436   A          7.350869       7.350869
 3437   A          7.367948       7.367948
 3438   A          7.376464       7.376464
 3439   A          7.380380       7.380380
 3440   A          7.391308       7.391308
 3441   A          7.393267       7.393267
 3442   A          7.398194       7.398194
 3443   A          7.409506       7.409506
 3444   A          7.413419       7.413419
 3445   A          7.417207       7.417207
 3446   A          7.420240       7.420240
 3447   A          7.422521       7.422521
 3448   A          7.451882       7.451882
 3449   A          7.456417       7.456417
 3450   A          7.473954       7.473954
 3451   A          7.506801       7.506801
 3452   A          7.512833       7.512833
 3453   A          7.516823       7.516823
 3454   A          7.527641       7.527641
 3455   A          7.546398       7.546398
 3456   A          7.576972       7.576972
 3457   A          7.593482       7.593482
 3458   A          7.602329       7.602329
 3459   A          7.643416       7.643416
 3460   A          7.649941       7.649941
 3461   A          7.694256       7.694256
 3462   A          9.559730       9.559730
 3463   A          9.793674       9.793674
 3464   A          9.798385       9.798385
 3465   A          9.835392       9.835392
 3466   A          9.923251       9.923251
 3467   A         10.167340      10.167340
 3468   A         10.421376      10.421376
 3469   A         10.567128      10.567128
 3470   A         19.635360      19.635360
 3471   A         43.330257      43.330257
 3472   A         43.344337      43.344337
 3473   A         43.378257      43.378257
 3474   A         43.390732      43.390732
 3475   A         43.393924      43.393924
 3476   A         43.397600      43.397600
 3477   A         43.407493      43.407493
 3478   A         43.411264      43.411264
 3479   A         43.424680      43.424680
 3480   A         43.426362      43.426362
 3481   A         43.433513      43.433513
 3482   A         43.438228      43.438228
 3483   A         43.445985      43.445985
 3484   A         43.455719      43.455719
 3485   A         43.466445      43.466445
 3486   A         43.475297      43.475297
 3487   A         43.476553      43.476553
 3488   A         43.486857      43.486857
 3489   A         43.502160      43.502160
 3490   A         43.506366      43.506366
 3491   A         43.508451      43.508451
 3492   A         43.516299      43.516299
 3493   A         43.538096      43.538096
 3494   A         43.539899      43.539899
 3495   A         43.560111      43.560111
 3496   A         43.573260      43.573260
 3497   A         43.575006      43.575006
 3498   A         43.600133      43.600133
 3499   A         43.608546      43.608546
 3500   A         43.625355      43.625355
 3501   A         43.630413      43.630413
 3502   A         43.646644      43.646644
 3503   A         43.646910      43.646910
 3504   A         43.663090      43.663090
 3505   A         43.672013      43.672013
 3506   A         43.707114      43.707114
 3507   A         43.712253      43.712253
 3508   A         43.744059      43.744059
 3509   A         43.745086      43.745086
 3510   A         43.745901      43.745901
 3511   A         43.785316      43.785316
 3512   A         43.790980      43.790980
 3513   A         43.795731      43.795731
 3514   A         43.799148      43.799148
 3515   A         43.805492      43.805492
 3516   A         43.824742      43.824742
 3517   A         43.832092      43.832092
 3518   A         43.853658      43.853658
 3519   A         43.871037      43.871037
 3520   A         43.885915      43.885915
 3521   A         43.910852      43.910852
 3522   A         43.915704      43.915704
 3523   A         43.946808      43.946808
 3524   A         43.976927      43.976927
 3525   A         44.002359      44.002359
 3526   A         44.003347      44.003347
 3527   A         44.041617      44.041617
 3528   A         44.042776      44.042776
 3529   A         44.127102      44.127102
 3530   A         44.128601      44.128601
 3531   A         44.128906      44.128906
 3532   A         44.142655      44.142655
 3533   A         44.180393      44.180393
 3534   A         44.212715      44.212715
 3535   A         44.249133      44.249133
 3536   A         44.299694      44.299694
 3537   A         44.310960      44.310960
 3538   A         44.321389      44.321389
 3539   A         44.339185      44.339185
 3540   A         44.340475      44.340475
 3541   A         44.342423      44.342423
 3542   A         44.430437      44.430437
 3543   A        127.398528     127.398528
 
 RETURNING FROM SCF ALGORITHM
 ======================================================================
 
 ************************ 2021-10-19 15:54:39 *************************
                      Normal termination of mrcc.
 **********************************************************************
