
                                 *****************
                                 * O   R   C   A *
                                 *****************

                                            #,                                       
                                            ###                                      
                                            ####                                     
                                            #####                                    
                                            ######                                   
                                           ########,                                 
                                     ,,################,,,,,                         
                               ,,#################################,,                 
                          ,,##########################################,,             
                       ,#########################################, ''#####,          
                    ,#############################################,,   '####,        
                  ,##################################################,,,,####,       
                ,###########''''           ''''###############################       
              ,#####''   ,,,,##########,,,,          '''####'''          '####       
            ,##' ,,,,###########################,,,                        '##       
           ' ,,###''''                  '''############,,,                           
         ,,##''                                '''############,,,,        ,,,,,,###''
      ,#''                                            '''#######################'''  
     '                                                          ''''####''''         
             ,#######,   #######,   ,#######,      ##                                
            ,#'     '#,  ##    ##  ,#'     '#,    #''#        ######   ,####,        
            ##       ##  ##   ,#'  ##            #'  '#       #        #'  '#        
            ##       ##  #######   ##           ,######,      #####,   #    #        
            '#,     ,#'  ##    ##  '#,     ,#' ,#      #,         ##   #,  ,#        
             '#######'   ##     ##  '#######'  #'      '#     #####' # '####'        



                  #######################################################
                  #                        -***-                        #
                  #          Department of theory and spectroscopy      #
                  #    Directorship and core code : Frank Neese         #
                  #        Max Planck Institute fuer Kohlenforschung    #
                  #                Kaiser Wilhelm Platz 1               #
                  #                 D-45470 Muelheim/Ruhr               #
                  #                      Germany                        #
                  #                                                     #
                  #                  All rights reserved                #
                  #                        -***-                        #
                  #######################################################


                         Program Version 5.0.1 -  RELEASE  -


 With contributions from (in alphabetic order):
   Daniel Aravena         : Magnetic Suceptibility
   Michael Atanasov       : Ab Initio Ligand Field Theory (pilot matlab implementation)
   Alexander A. Auer      : GIAO ZORA, VPT2 properties, NMR spectrum
   Ute Becker             : Parallelization
   Giovanni Bistoni       : ED, misc. LED, open-shell LED, HFLD
   Martin Brehm           : Molecular dynamics
   Dmytro Bykov           : SCF Hessian
   Vijay G. Chilkuri      : MRCI spin determinant printing, contributions to CSF-ICE
   Dipayan Datta          : RHF DLPNO-CCSD density
   Achintya Kumar Dutta   : EOM-CC, STEOM-CC
   Dmitry Ganyushin       : Spin-Orbit,Spin-Spin,Magnetic field MRCI
   Miquel Garcia          : C-PCM and meta-GGA Hessian, CC/C-PCM, Gaussian charge scheme
   Yang Guo               : DLPNO-NEVPT2, F12-NEVPT2, CIM, IAO-localization
   Andreas Hansen         : Spin unrestricted coupled pair/coupled cluster methods
   Benjamin Helmich-Paris : MC-RPA, TRAH-SCF, COSX integrals
   Lee Huntington         : MR-EOM, pCC
   Robert Izsak           : Overlap fitted RIJCOSX, COSX-SCS-MP3, EOM
   Marcus Kettner         : VPT2
   Christian Kollmar      : KDIIS, OOCD, Brueckner-CCSD(T), CCSD density, CASPT2, CASPT2-K
   Simone Kossmann        : Meta GGA functionals, TD-DFT gradient, OOMP2, MP2 Hessian
   Martin Krupicka        : Initial AUTO-CI
   Lucas Lang             : DCDCAS
   Marvin Lechner         : AUTO-CI (C++ implementation), FIC-MRCC
   Dagmar Lenk            : GEPOL surface, SMD
   Dimitrios Liakos       : Extrapolation schemes; Compound Job, initial MDCI parallelization
   Dimitrios Manganas     : Further ROCIS development; embedding schemes
   Dimitrios Pantazis     : SARC Basis sets
   Anastasios Papadopoulos: AUTO-CI, single reference methods and gradients
   Taras Petrenko         : DFT Hessian,TD-DFT gradient, ASA, ECA, R-Raman, ABS, FL, XAS/XES, NRVS
   Peter Pinski           : DLPNO-MP2, DLPNO-MP2 Gradient
   Christoph Reimann      : Effective Core Potentials
   Marius Retegan         : Local ZFS, SOC
   Christoph Riplinger    : Optimizer, TS searches, QM/MM, DLPNO-CCSD(T), (RO)-DLPNO pert. Triples
   Tobias Risthaus        : Range-separated hybrids, TD-DFT gradient, RPA, STAB
   Michael Roemelt        : Original ROCIS implementation
   Masaaki Saitow         : Open-shell DLPNO-CCSD energy and density
   Barbara Sandhoefer     : DKH picture change effects
   Avijit Sen             : IP-ROCIS
   Kantharuban Sivalingam : CASSCF convergence, NEVPT2, FIC-MRCI
   Bernardo de Souza      : ESD, SOC TD-DFT
   Georgi Stoychev        : AutoAux, RI-MP2 NMR, DLPNO-MP2 response
   Willem Van den Heuvel  : Paramagnetic NMR
   Boris Wezisla          : Elementary symmetry handling
   Frank Wennmohs         : Technical directorship


 We gratefully acknowledge several colleagues who have allowed us to
 interface, adapt or use parts of their codes:
   Stefan Grimme, W. Hujo, H. Kruse, P. Pracht,  : VdW corrections, initial TS optimization,
                  C. Bannwarth, S. Ehlert          DFT functionals, gCP, sTDA/sTD-DF
   Ed Valeev, F. Pavosevic, A. Kumar             : LibInt (2-el integral package), F12 methods
   Garnet Chan, S. Sharma, J. Yang, R. Olivares  : DMRG
   Ulf Ekstrom                                   : XCFun DFT Library
   Mihaly Kallay                                 : mrcc  (arbitrary order and MRCC methods)
   Jiri Pittner, Ondrej Demel                    : Mk-CCSD
   Frank Weinhold                                : gennbo (NPA and NBO analysis)
   Christopher J. Cramer and Donald G. Truhlar   : smd solvation model
   Lars Goerigk                                  : TD-DFT with DH, B97 family of functionals
   V. Asgeirsson, H. Jonsson                     : NEB implementation
   FAccTs GmbH                                   : IRC, NEB, NEB-TS, DLPNO-Multilevel, CI-OPT
                                                   MM, QMMM, 2- and 3-layer-ONIOM, Crystal-QMMM,
                                                   LR-CPCM, SF, NACMEs, symmetry and pop. for TD-DFT,
                                                   nearIR, NL-DFT gradient (VV10), updates on ESD,
                                                   ML-optimized integration grids
   S Lehtola, MJT Oliveira, MAL Marques          : LibXC Library
   Liviu Ungur et al                             : ANISO software


 Your calculation uses the libint2 library for the computation of 2-el integrals
 For citations please refer to: http://libint.valeyev.net

 Your ORCA version has been built with support for libXC version: 5.1.0
 For citations please refer to: https://tddft.org/programs/libxc/

 This ORCA versions uses:
   CBLAS   interface :  Fast vector & matrix operations
   LAPACKE interface :  Fast linear algebra routines
   SCALAPACK package :  Parallel linear algebra routines
   Shared memory     :  Shared parallel matrices
   BLAS/LAPACK       :  OpenBLAS 0.3.15  USE64BITINT DYNAMIC_ARCH NO_AFFINITY Prescott SINGLE_THREADED
        Core in use  :  Prescott
   Copyright (c) 2011-2014, The OpenBLAS Project


SCAN-COORDS
================================================================================

----- Orbital basis set information -----
Your calculation utilizes the basis: def2-SVP
   F. Weigend and R. Ahlrichs, Phys. Chem. Chem. Phys. 7, 3297 (2005).

----- AuxJ basis set information -----
Your calculation utilizes the auxiliary basis: def2/J
   F. Weigend, Phys. Chem. Chem. Phys. 8, 1057 (2006).

================================================================================
                                        WARNINGS
                       Please study these warnings very carefully!
================================================================================

WARNING: The globally-selected AuxJ basis set is optimized for use with ECPs
         Make sure a suitable alternative is explicitly given all heavy elements (Z>36)

INFO   : the flag for use of the SHARK integral package has been found!

================================================================================
                                       INPUT FILE
================================================================================
NAME = orca.inp
|  1> ! NormalSCF SlowConv DIIS
|  2> %maxcore 18000
|  3> %pal
|  4>   nprocs 24
|  5> end
|  6> %pointcharges "orca.bq"
|  7> %method
|  8>   Method DFT
|  9>   Functional PBE
| 10>   RI on
| 11>   RunTyp Energy
| 12> end
| 13> %basis
| 14>   Basis "def2-SVP"
| 15>   Aux "def2/J"
| 16> end
| 17> %scf
| 18>   HFTyp rks
| 19>   Guess Hueckel
| 20>   AutoStart True
| 21>   SCFMode Direct
| 22>   MaxIter 1000
| 23>   sthresh 1e-6
| 24>   AutoTRAHIter 100
| 25> end
| 26> %coords
| 27>   CTyp xyz
| 28>   Mult 1
| 29>   Units angs
| 30>   Charge -28
| 31>   coords
| 32> O                       0.00000000000    0.00000000000    0.00000000000
| 33> Ti                      0.00000536997    1.48055149700   -1.06892606631
| 34> Ti                      0.00000552101   -1.48055312386   -1.06892138720
| 35> O                       0.00000442396   -0.00000111986   -2.54840301833
| 36> O                      -2.03525914147    1.48054518365   -1.11149385695
| 37> O                       2.03526534753    1.48054527935   -1.11149163807
| 38> O                       2.03526471018   -1.48054700097   -1.11149295951
| 39> O                      -2.03525907462   -1.48054722666   -1.11149503385
| 40> O                      -0.00000037752    2.96109155033   -0.00000271770
| 41> O                      -0.00000037752   -2.96109552160   -0.00000271770
| 42> O                       0.00000449994    2.96109199200   -2.54840438198
| 43> O                       0.00000449994   -2.96109507993   -2.54840438198
| 44> Ti                     -0.00005220374   -0.00000071014   -4.41288396045
| 45> O                      -1.30106804451    1.48054600613   -4.51644966155
| 46> O                       1.30109103436    1.48054591013   -4.51645509582
| 47> O                       1.30109095673   -1.48054821213   -4.51645492343
| 48> O                      -1.30106798933   -1.48054805070   -4.51644946585
| 49> O                      -0.00000306899   -0.00000100232   -6.51331789952
| 50> O                      -0.00000306899    2.96109253364   -6.51331789952
| 51> O                      -0.00000306899   -2.96109453828   -6.51331789952
| 52> Ti                     -0.00000306899    1.48054576566   -7.78540932970
| 53> Ti                     -0.00000306899   -1.48054777030   -7.78540932970
| 54> O                      -1.98193128755    1.48054576566   -7.78540932970
| 55> O                       1.98192514957    1.48054576566   -7.78540932970
| 56> O                       1.98192514957   -1.48054777030   -7.78540932970
| 57> O                      -1.98193128755   -1.48054777030   -7.78540932970
| 58> O                      -0.00000306899   -0.00000100232   -9.05750075987
| 59> O                      -0.00000306899    2.96109253364   -9.05750075987
| 60> O                      -0.00000306899   -2.96109453828   -9.05750075987
| 61> Ti>    4.00000000000    3.25402319191   -0.00000112036   -1.42716202606
| 62> NewECP
| 63> N_core 0
| 64>   lmax f
| 65>   s 2
| 66>    1      0.860000       9.191690  2
| 67>    2      0.172000       0.008301  2
| 68>   p 2
| 69>    1      0.860000      17.997720  2
| 70>    2      0.172000      -0.032600  2
| 71>   d 2
| 72>    1      1.600000      -9.504310  2
| 73>    2      0.320000      -0.151370  2
| 74>   f 1
| 75>    1      1.000000000    0.000000000 2
| 76> end
| 77> Ti>    4.00000000000   -3.25401610555   -0.00000112036   -1.42716202606
| 78> NewECP
| 79> N_core 0
| 80>   lmax f
| 81>   s 2
| 82>    1      0.860000       9.191690  2
| 83>    2      0.172000       0.008301  2
| 84>   p 2
| 85>    1      0.860000      17.997720  2
| 86>    2      0.172000      -0.032600  2
| 87>   d 2
| 88>    1      1.600000      -9.504310  2
| 89>    2      0.320000      -0.151370  2
| 90>   f 1
| 91>    1      1.000000000    0.000000000 2
| 92> end
| 93> Ti>    4.00000000000    0.00000552101    4.44163394806   -1.06892138720
| 94> NewECP
| 95> N_core 0
| 96>   lmax f
| 97>   s 2
| 98>    1      0.860000       9.191690  2
| 99>    2      0.172000       0.008301  2
|100>   p 2
|101>    1      0.860000      17.997720  2
|102>    2      0.172000      -0.032600  2
|103>   d 2
|104>    1      1.600000      -9.504310  2
|105>    2      0.320000      -0.151370  2
|106>   f 1
|107>    1      1.000000000    0.000000000 2
|108> end
|109> Ti>    4.00000000000    0.00000536997   -4.44163557493   -1.06892606631
|110> NewECP
|111> N_core 0
|112>   lmax f
|113>   s 2
|114>    1      0.860000       9.191690  2
|115>    2      0.172000       0.008301  2
|116>   p 2
|117>    1      0.860000      17.997720  2
|118>    2      0.172000      -0.032600  2
|119>   d 2
|120>    1      1.600000      -9.504310  2
|121>    2      0.320000      -0.151370  2
|122>   f 1
|123>    1      1.000000000    0.000000000 2
|124> end
|125> Ti>    4.00000000000   -3.25401668289    2.96109302555   -1.42716235830
|126> NewECP
|127> N_core 0
|128>   lmax f
|129>   s 2
|130>    1      0.860000       9.191690  2
|131>    2      0.172000       0.008301  2
|132>   p 2
|133>    1      0.860000      17.997720  2
|134>    2      0.172000      -0.032600  2
|135>   d 2
|136>    1      1.600000      -9.504310  2
|137>    2      0.320000      -0.151370  2
|138>   f 1
|139>    1      1.000000000    0.000000000 2
|140> end
|141> Ti>    4.00000000000    3.25402261457    2.96109302555   -1.42716235830
|142> NewECP
|143> N_core 0
|144>   lmax f
|145>   s 2
|146>    1      0.860000       9.191690  2
|147>    2      0.172000       0.008301  2
|148>   p 2
|149>    1      0.860000      17.997720  2
|150>    2      0.172000      -0.032600  2
|151>   d 2
|152>    1      1.600000      -9.504310  2
|153>    2      0.320000      -0.151370  2
|154>   f 1
|155>    1      1.000000000    0.000000000 2
|156> end
|157> Ti>    4.00000000000    3.25402261457   -2.96109404638   -1.42716235830
|158> NewECP
|159> N_core 0
|160>   lmax f
|161>   s 2
|162>    1      0.860000       9.191690  2
|163>    2      0.172000       0.008301  2
|164>   p 2
|165>    1      0.860000      17.997720  2
|166>    2      0.172000      -0.032600  2
|167>   d 2
|168>    1      1.600000      -9.504310  2
|169>    2      0.320000      -0.151370  2
|170>   f 1
|171>    1      1.000000000    0.000000000 2
|172> end
|173> Ti>    4.00000000000   -3.25401668289   -2.96109404638   -1.42716235830
|174> NewECP
|175> N_core 0
|176>   lmax f
|177>   s 2
|178>    1      0.860000       9.191690  2
|179>    2      0.172000       0.008301  2
|180>   p 2
|181>    1      0.860000      17.997720  2
|182>    2      0.172000      -0.032600  2
|183>   d 2
|184>    1      1.600000      -9.504310  2
|185>    2      0.320000      -0.151370  2
|186>   f 1
|187>    1      1.000000000    0.000000000 2
|188> end
|189> Ti>    4.00000000000   -0.00005206359    2.96109301637   -4.41288206312
|190> NewECP
|191> N_core 0
|192>   lmax f
|193>   s 2
|194>    1      0.860000       9.191690  2
|195>    2      0.172000       0.008301  2
|196>   p 2
|197>    1      0.860000      17.997720  2
|198>    2      0.172000      -0.032600  2
|199>   d 2
|200>    1      1.600000      -9.504310  2
|201>    2      0.320000      -0.151370  2
|202>   f 1
|203>    1      1.000000000    0.000000000 2
|204> end
|205> Ti>    4.00000000000   -0.00005206359   -2.96109405556   -4.41288206312
|206> NewECP
|207> N_core 0
|208>   lmax f
|209>   s 2
|210>    1      0.860000       9.191690  2
|211>    2      0.172000       0.008301  2
|212>   p 2
|213>    1      0.860000      17.997720  2
|214>    2      0.172000      -0.032600  2
|215>   d 2
|216>    1      1.600000      -9.504310  2
|217>    2      0.320000      -0.151370  2
|218>   f 1
|219>    1      1.000000000    0.000000000 2
|220> end
|221> Ti>    4.00000000000    3.25395215162    1.48054533538   -4.59991327640
|222> NewECP
|223> N_core 0
|224>   lmax f
|225>   s 2
|226>    1      0.860000       9.191690  2
|227>    2      0.172000       0.008301  2
|228>   p 2
|229>    1      0.860000      17.997720  2
|230>    2      0.172000      -0.032600  2
|231>   d 2
|232>    1      1.600000      -9.504310  2
|233>    2      0.320000      -0.151370  2
|234>   f 1
|235>    1      1.000000000    0.000000000 2
|236> end
|237> Ti>    4.00000000000    3.25395195581   -1.48054722422   -4.59991284715
|238> NewECP
|239> N_core 0
|240>   lmax f
|241>   s 2
|242>    1      0.860000       9.191690  2
|243>    2      0.172000       0.008301  2
|244>   p 2
|245>    1      0.860000      17.997720  2
|246>    2      0.172000      -0.032600  2
|247>   d 2
|248>    1      1.600000      -9.504310  2
|249>    2      0.320000      -0.151370  2
|250>   f 1
|251>    1      1.000000000    0.000000000 2
|252> end
|253> Ti>    4.00000000000   -3.25408714585    1.48054533538   -4.59991327640
|254> NewECP
|255> N_core 0
|256>   lmax f
|257>   s 2
|258>    1      0.860000       9.191690  2
|259>    2      0.172000       0.008301  2
|260>   p 2
|261>    1      0.860000      17.997720  2
|262>    2      0.172000      -0.032600  2
|263>   d 2
|264>    1      1.600000      -9.504310  2
|265>    2      0.320000      -0.151370  2
|266>   f 1
|267>    1      1.000000000    0.000000000 2
|268> end
|269> Ti>    4.00000000000   -3.25408734165   -1.48054722422   -4.59991284715
|270> NewECP
|271> N_core 0
|272>   lmax f
|273>   s 2
|274>    1      0.860000       9.191690  2
|275>    2      0.172000       0.008301  2
|276>   p 2
|277>    1      0.860000      17.997720  2
|278>    2      0.172000      -0.032600  2
|279>   d 2
|280>    1      1.600000      -9.504310  2
|281>    2      0.320000      -0.151370  2
|282>   f 1
|283>    1      1.000000000    0.000000000 2
|284> end
|285> Ti>    4.00000000000   -6.50803392749    1.48055149700   -1.06892606631
|286> NewECP
|287> N_core 0
|288>   lmax f
|289>   s 2
|290>    1      0.860000       9.191690  2
|291>    2      0.172000       0.008301  2
|292>   p 2
|293>    1      0.860000      17.997720  2
|294>    2      0.172000      -0.032600  2
|295>   d 2
|296>    1      1.600000      -9.504310  2
|297>    2      0.320000      -0.151370  2
|298>   f 1
|299>    1      1.000000000    0.000000000 2
|300> end
|301> Ti>    4.00000000000    6.50804466744    1.48055149700   -1.06892606631
|302> NewECP
|303> N_core 0
|304>   lmax f
|305>   s 2
|306>    1      0.860000       9.191690  2
|307>    2      0.172000       0.008301  2
|308>   p 2
|309>    1      0.860000      17.997720  2
|310>    2      0.172000      -0.032600  2
|311>   d 2
|312>    1      1.600000      -9.504310  2
|313>    2      0.320000      -0.151370  2
|314>   f 1
|315>    1      1.000000000    0.000000000 2
|316> end
|317> Ti>    4.00000000000    6.50804481848   -1.48055312386   -1.06892138720
|318> NewECP
|319> N_core 0
|320>   lmax f
|321>   s 2
|322>    1      0.860000       9.191690  2
|323>    2      0.172000       0.008301  2
|324>   p 2
|325>    1      0.860000      17.997720  2
|326>    2      0.172000      -0.032600  2
|327>   d 2
|328>    1      1.600000      -9.504310  2
|329>    2      0.320000      -0.151370  2
|330>   f 1
|331>    1      1.000000000    0.000000000 2
|332> end
|333> Ti>    4.00000000000   -6.50803377645   -1.48055312386   -1.06892138720
|334> NewECP
|335> N_core 0
|336>   lmax f
|337>   s 2
|338>    1      0.860000       9.191690  2
|339>    2      0.172000       0.008301  2
|340>   p 2
|341>    1      0.860000      17.997720  2
|342>    2      0.172000      -0.032600  2
|343>   d 2
|344>    1      1.600000      -9.504310  2
|345>    2      0.320000      -0.151370  2
|346>   f 1
|347>    1      1.000000000    0.000000000 2
|348> end
|349> Ti>    4.00000000000   -3.25401610555    5.92218595157   -1.42716202606
|350> NewECP
|351> N_core 0
|352>   lmax f
|353>   s 2
|354>    1      0.860000       9.191690  2
|355>    2      0.172000       0.008301  2
|356>   p 2
|357>    1      0.860000      17.997720  2
|358>    2      0.172000      -0.032600  2
|359>   d 2
|360>    1      1.600000      -9.504310  2
|361>    2      0.320000      -0.151370  2
|362>   f 1
|363>    1      1.000000000    0.000000000 2
|364> end
|365> Ti>    4.00000000000    3.25402319191    5.92218595157   -1.42716202606
|366> NewECP
|367> N_core 0
|368>   lmax f
|369>   s 2
|370>    1      0.860000       9.191690  2
|371>    2      0.172000       0.008301  2
|372>   p 2
|373>    1      0.860000      17.997720  2
|374>    2      0.172000      -0.032600  2
|375>   d 2
|376>    1      1.600000      -9.504310  2
|377>    2      0.320000      -0.151370  2
|378>   f 1
|379>    1      1.000000000    0.000000000 2
|380> end
|381> Ti>    4.00000000000    3.25402319191   -5.92218819228   -1.42716202606
|382> NewECP
|383> N_core 0
|384>   lmax f
|385>   s 2
|386>    1      0.860000       9.191690  2
|387>    2      0.172000       0.008301  2
|388>   p 2
|389>    1      0.860000      17.997720  2
|390>    2      0.172000      -0.032600  2
|391>   d 2
|392>    1      1.600000      -9.504310  2
|393>    2      0.320000      -0.151370  2
|394>   f 1
|395>    1      1.000000000    0.000000000 2
|396> end
|397> Ti>    4.00000000000   -3.25401610555   -5.92218819228   -1.42716202606
|398> NewECP
|399> N_core 0
|400>   lmax f
|401>   s 2
|402>    1      0.860000       9.191690  2
|403>    2      0.172000       0.008301  2
|404>   p 2
|405>    1      0.860000      17.997720  2
|406>    2      0.172000      -0.032600  2
|407>   d 2
|408>    1      1.600000      -9.504310  2
|409>    2      0.320000      -0.151370  2
|410>   f 1
|411>    1      1.000000000    0.000000000 2
|412> end
|413> Ti>    4.00000000000    3.25395195581    4.44163984770   -4.59991284715
|414> NewECP
|415> N_core 0
|416>   lmax f
|417>   s 2
|418>    1      0.860000       9.191690  2
|419>    2      0.172000       0.008301  2
|420>   p 2
|421>    1      0.860000      17.997720  2
|422>    2      0.172000      -0.032600  2
|423>   d 2
|424>    1      1.600000      -9.504310  2
|425>    2      0.320000      -0.151370  2
|426>   f 1
|427>    1      1.000000000    0.000000000 2
|428> end
|429> Ti>    4.00000000000    3.25395215162   -4.44164173655   -4.59991327640
|430> NewECP
|431> N_core 0
|432>   lmax f
|433>   s 2
|434>    1      0.860000       9.191690  2
|435>    2      0.172000       0.008301  2
|436>   p 2
|437>    1      0.860000      17.997720  2
|438>    2      0.172000      -0.032600  2
|439>   d 2
|440>    1      1.600000      -9.504310  2
|441>    2      0.320000      -0.151370  2
|442>   f 1
|443>    1      1.000000000    0.000000000 2
|444> end
|445> Ti>    4.00000000000   -3.25408734165    4.44163984770   -4.59991284715
|446> NewECP
|447> N_core 0
|448>   lmax f
|449>   s 2
|450>    1      0.860000       9.191690  2
|451>    2      0.172000       0.008301  2
|452>   p 2
|453>    1      0.860000      17.997720  2
|454>    2      0.172000      -0.032600  2
|455>   d 2
|456>    1      1.600000      -9.504310  2
|457>    2      0.320000      -0.151370  2
|458>   f 1
|459>    1      1.000000000    0.000000000 2
|460> end
|461> Ti>    4.00000000000   -3.25408714585   -4.44164173655   -4.59991327640
|462> NewECP
|463> N_core 0
|464>   lmax f
|465>   s 2
|466>    1      0.860000       9.191690  2
|467>    2      0.172000       0.008301  2
|468>   p 2
|469>    1      0.860000      17.997720  2
|470>    2      0.172000      -0.032600  2
|471>   d 2
|472>    1      1.600000      -9.504310  2
|473>    2      0.320000      -0.151370  2
|474>   f 1
|475>    1      1.000000000    0.000000000 2
|476> end
|477> Ti>    4.00000000000   -0.00005220374    5.92218636178   -4.41288396045
|478> NewECP
|479> N_core 0
|480>   lmax f
|481>   s 2
|482>    1      0.860000       9.191690  2
|483>    2      0.172000       0.008301  2
|484>   p 2
|485>    1      0.860000      17.997720  2
|486>    2      0.172000      -0.032600  2
|487>   d 2
|488>    1      1.600000      -9.504310  2
|489>    2      0.320000      -0.151370  2
|490>   f 1
|491>    1      1.000000000    0.000000000 2
|492> end
|493> Ti>    4.00000000000   -0.00005220374   -5.92218778207   -4.41288396045
|494> NewECP
|495> N_core 0
|496>   lmax f
|497>   s 2
|498>    1      0.860000       9.191690  2
|499>    2      0.172000       0.008301  2
|500>   p 2
|501>    1      0.860000      17.997720  2
|502>    2      0.172000      -0.032600  2
|503>   d 2
|504>    1      1.600000      -9.504310  2
|505>    2      0.320000      -0.151370  2
|506>   f 1
|507>    1      1.000000000    0.000000000 2
|508> end
|509> Ti>    4.00000000000    0.00000536997    7.40273856892   -1.06892606631
|510> NewECP
|511> N_core 0
|512>   lmax f
|513>   s 2
|514>    1      0.860000       9.191690  2
|515>    2      0.172000       0.008301  2
|516>   p 2
|517>    1      0.860000      17.997720  2
|518>    2      0.172000      -0.032600  2
|519>   d 2
|520>    1      1.600000      -9.504310  2
|521>    2      0.320000      -0.151370  2
|522>   f 1
|523>    1      1.000000000    0.000000000 2
|524> end
|525> Ti>    4.00000000000    0.00000552101   -7.40274019579   -1.06892138720
|526> NewECP
|527> N_core 0
|528>   lmax f
|529>   s 2
|530>    1      0.860000       9.191690  2
|531>    2      0.172000       0.008301  2
|532>   p 2
|533>    1      0.860000      17.997720  2
|534>    2      0.172000      -0.032600  2
|535>   d 2
|536>    1      1.600000      -9.504310  2
|537>    2      0.320000      -0.151370  2
|538>   f 1
|539>    1      1.000000000    0.000000000 2
|540> end
|541> Ti>    4.00000000000    6.50798709372   -0.00000071014   -4.41288396045
|542> NewECP
|543> N_core 0
|544>   lmax f
|545>   s 2
|546>    1      0.860000       9.191690  2
|547>    2      0.172000       0.008301  2
|548>   p 2
|549>    1      0.860000      17.997720  2
|550>    2      0.172000      -0.032600  2
|551>   d 2
|552>    1      1.600000      -9.504310  2
|553>    2      0.320000      -0.151370  2
|554>   f 1
|555>    1      1.000000000    0.000000000 2
|556> end
|557> Ti>    4.00000000000   -6.50809150121   -0.00000071014   -4.41288396045
|558> NewECP
|559> N_core 0
|560>   lmax f
|561>   s 2
|562>    1      0.860000       9.191690  2
|563>    2      0.172000       0.008301  2
|564>   p 2
|565>    1      0.860000      17.997720  2
|566>    2      0.172000      -0.032600  2
|567>   d 2
|568>    1      1.600000      -9.504310  2
|569>    2      0.320000      -0.151370  2
|570>   f 1
|571>    1      1.000000000    0.000000000 2
|572> end
|573> Ti>    4.00000000000   -6.50803377645    4.44163394806   -1.06892138720
|574> NewECP
|575> N_core 0
|576>   lmax f
|577>   s 2
|578>    1      0.860000       9.191690  2
|579>    2      0.172000       0.008301  2
|580>   p 2
|581>    1      0.860000      17.997720  2
|582>    2      0.172000      -0.032600  2
|583>   d 2
|584>    1      1.600000      -9.504310  2
|585>    2      0.320000      -0.151370  2
|586>   f 1
|587>    1      1.000000000    0.000000000 2
|588> end
|589> Ti>    4.00000000000    6.50804481848    4.44163394806   -1.06892138720
|590> NewECP
|591> N_core 0
|592>   lmax f
|593>   s 2
|594>    1      0.860000       9.191690  2
|595>    2      0.172000       0.008301  2
|596>   p 2
|597>    1      0.860000      17.997720  2
|598>    2      0.172000      -0.032600  2
|599>   d 2
|600>    1      1.600000      -9.504310  2
|601>    2      0.320000      -0.151370  2
|602>   f 1
|603>    1      1.000000000    0.000000000 2
|604> end
|605> Ti>    4.00000000000    6.50804466744   -4.44163557493   -1.06892606631
|606> NewECP
|607> N_core 0
|608>   lmax f
|609>   s 2
|610>    1      0.860000       9.191690  2
|611>    2      0.172000       0.008301  2
|612>   p 2
|613>    1      0.860000      17.997720  2
|614>    2      0.172000      -0.032600  2
|615>   d 2
|616>    1      1.600000      -9.504310  2
|617>    2      0.320000      -0.151370  2
|618>   f 1
|619>    1      1.000000000    0.000000000 2
|620> end
|621> Ti>    4.00000000000   -6.50803392749   -4.44163557493   -1.06892606631
|622> NewECP
|623> N_core 0
|624>   lmax f
|625>   s 2
|626>    1      0.860000       9.191690  2
|627>    2      0.172000       0.008301  2
|628>   p 2
|629>    1      0.860000      17.997720  2
|630>    2      0.172000      -0.032600  2
|631>   d 2
|632>    1      1.600000      -9.504310  2
|633>    2      0.320000      -0.151370  2
|634>   f 1
|635>    1      1.000000000    0.000000000 2
|636> end
|637> Ti>    4.00000000000    6.50798723387    2.96109301637   -4.41288206312
|638> NewECP
|639> N_core 0
|640>   lmax f
|641>   s 2
|642>    1      0.860000       9.191690  2
|643>    2      0.172000       0.008301  2
|644>   p 2
|645>    1      0.860000      17.997720  2
|646>    2      0.172000      -0.032600  2
|647>   d 2
|648>    1      1.600000      -9.504310  2
|649>    2      0.320000      -0.151370  2
|650>   f 1
|651>    1      1.000000000    0.000000000 2
|652> end
|653> Ti>    4.00000000000    6.50798723387   -2.96109405556   -4.41288206312
|654> NewECP
|655> N_core 0
|656>   lmax f
|657>   s 2
|658>    1      0.860000       9.191690  2
|659>    2      0.172000       0.008301  2
|660>   p 2
|661>    1      0.860000      17.997720  2
|662>    2      0.172000      -0.032600  2
|663>   d 2
|664>    1      1.600000      -9.504310  2
|665>    2      0.320000      -0.151370  2
|666>   f 1
|667>    1      1.000000000    0.000000000 2
|668> end
|669> Ti>    4.00000000000   -6.50809136106    2.96109301637   -4.41288206312
|670> NewECP
|671> N_core 0
|672>   lmax f
|673>   s 2
|674>    1      0.860000       9.191690  2
|675>    2      0.172000       0.008301  2
|676>   p 2
|677>    1      0.860000      17.997720  2
|678>    2      0.172000      -0.032600  2
|679>   d 2
|680>    1      1.600000      -9.504310  2
|681>    2      0.320000      -0.151370  2
|682>   f 1
|683>    1      1.000000000    0.000000000 2
|684> end
|685> Ti>    4.00000000000   -6.50809136106   -2.96109405556   -4.41288206312
|686> NewECP
|687> N_core 0
|688>   lmax f
|689>   s 2
|690>    1      0.860000       9.191690  2
|691>    2      0.172000       0.008301  2
|692>   p 2
|693>    1      0.860000      17.997720  2
|694>    2      0.172000      -0.032600  2
|695>   d 2
|696>    1      1.600000      -9.504310  2
|697>    2      0.320000      -0.151370  2
|698>   f 1
|699>    1      1.000000000    0.000000000 2
|700> end
|701> Ti>    4.00000000000    3.25401657974   -0.00000100232   -7.78540932970
|702> NewECP
|703> N_core 0
|704>   lmax f
|705>   s 2
|706>    1      0.860000       9.191690  2
|707>    2      0.172000       0.008301  2
|708>   p 2
|709>    1      0.860000      17.997720  2
|710>    2      0.172000      -0.032600  2
|711>   d 2
|712>    1      1.600000      -9.504310  2
|713>    2      0.320000      -0.151370  2
|714>   f 1
|715>    1      1.000000000    0.000000000 2
|716> end
|717> Ti>    4.00000000000   -3.25402271772   -0.00000100232   -7.78540932970
|718> NewECP
|719> N_core 0
|720>   lmax f
|721>   s 2
|722>    1      0.860000       9.191690  2
|723>    2      0.172000       0.008301  2
|724>   p 2
|725>    1      0.860000      17.997720  2
|726>    2      0.172000      -0.032600  2
|727>   d 2
|728>    1      1.600000      -9.504310  2
|729>    2      0.320000      -0.151370  2
|730>   f 1
|731>    1      1.000000000    0.000000000 2
|732> end
|733> Ti>    4.00000000000   -3.25402271772    2.96109253364   -7.78540932970
|734> NewECP
|735> N_core 0
|736>   lmax f
|737>   s 2
|738>    1      0.860000       9.191690  2
|739>    2      0.172000       0.008301  2
|740>   p 2
|741>    1      0.860000      17.997720  2
|742>    2      0.172000      -0.032600  2
|743>   d 2
|744>    1      1.600000      -9.504310  2
|745>    2      0.320000      -0.151370  2
|746>   f 1
|747>    1      1.000000000    0.000000000 2
|748> end
|749> Ti>    4.00000000000    3.25401657974    2.96109253364   -7.78540932970
|750> NewECP
|751> N_core 0
|752>   lmax f
|753>   s 2
|754>    1      0.860000       9.191690  2
|755>    2      0.172000       0.008301  2
|756>   p 2
|757>    1      0.860000      17.997720  2
|758>    2      0.172000      -0.032600  2
|759>   d 2
|760>    1      1.600000      -9.504310  2
|761>    2      0.320000      -0.151370  2
|762>   f 1
|763>    1      1.000000000    0.000000000 2
|764> end
|765> Ti>    4.00000000000    3.25401657974   -2.96109453828   -7.78540932970
|766> NewECP
|767> N_core 0
|768>   lmax f
|769>   s 2
|770>    1      0.860000       9.191690  2
|771>    2      0.172000       0.008301  2
|772>   p 2
|773>    1      0.860000      17.997720  2
|774>    2      0.172000      -0.032600  2
|775>   d 2
|776>    1      1.600000      -9.504310  2
|777>    2      0.320000      -0.151370  2
|778>   f 1
|779>    1      1.000000000    0.000000000 2
|780> end
|781> Ti>    4.00000000000   -3.25402271772   -2.96109453828   -7.78540932970
|782> NewECP
|783> N_core 0
|784>   lmax f
|785>   s 2
|786>    1      0.860000       9.191690  2
|787>    2      0.172000       0.008301  2
|788>   p 2
|789>    1      0.860000      17.997720  2
|790>    2      0.172000      -0.032600  2
|791>   d 2
|792>    1      1.600000      -9.504310  2
|793>    2      0.320000      -0.151370  2
|794>   f 1
|795>    1      1.000000000    0.000000000 2
|796> end
|797> Ti>    4.00000000000   -0.00000306899    4.44163930162   -7.78540932970
|798> NewECP
|799> N_core 0
|800>   lmax f
|801>   s 2
|802>    1      0.860000       9.191690  2
|803>    2      0.172000       0.008301  2
|804>   p 2
|805>    1      0.860000      17.997720  2
|806>    2      0.172000      -0.032600  2
|807>   d 2
|808>    1      1.600000      -9.504310  2
|809>    2      0.320000      -0.151370  2
|810>   f 1
|811>    1      1.000000000    0.000000000 2
|812> end
|813> Ti>    4.00000000000   -0.00000306899   -4.44164130627   -7.78540932970
|814> NewECP
|815> N_core 0
|816>   lmax f
|817>   s 2
|818>    1      0.860000       9.191690  2
|819>    2      0.172000       0.008301  2
|820>   p 2
|821>    1      0.860000      17.997720  2
|822>    2      0.172000      -0.032600  2
|823>   d 2
|824>    1      1.600000      -9.504310  2
|825>    2      0.320000      -0.151370  2
|826>   f 1
|827>    1      1.000000000    0.000000000 2
|828> end
|829> Ti>    4.00000000000   -3.25408714585    7.40273240730   -4.59991327640
|830> NewECP
|831> N_core 0
|832>   lmax f
|833>   s 2
|834>    1      0.860000       9.191690  2
|835>    2      0.172000       0.008301  2
|836>   p 2
|837>    1      0.860000      17.997720  2
|838>    2      0.172000      -0.032600  2
|839>   d 2
|840>    1      1.600000      -9.504310  2
|841>    2      0.320000      -0.151370  2
|842>   f 1
|843>    1      1.000000000    0.000000000 2
|844> end
|845> Ti>    4.00000000000    3.25395215162    7.40273240730   -4.59991327640
|846> NewECP
|847> N_core 0
|848>   lmax f
|849>   s 2
|850>    1      0.860000       9.191690  2
|851>    2      0.172000       0.008301  2
|852>   p 2
|853>    1      0.860000      17.997720  2
|854>    2      0.172000      -0.032600  2
|855>   d 2
|856>    1      1.600000      -9.504310  2
|857>    2      0.320000      -0.151370  2
|858>   f 1
|859>    1      1.000000000    0.000000000 2
|860> end
|861> Ti>    4.00000000000    3.25395195581   -7.40273429615   -4.59991284715
|862> NewECP
|863> N_core 0
|864>   lmax f
|865>   s 2
|866>    1      0.860000       9.191690  2
|867>    2      0.172000       0.008301  2
|868>   p 2
|869>    1      0.860000      17.997720  2
|870>    2      0.172000      -0.032600  2
|871>   d 2
|872>    1      1.600000      -9.504310  2
|873>    2      0.320000      -0.151370  2
|874>   f 1
|875>    1      1.000000000    0.000000000 2
|876> end
|877> Ti>    4.00000000000   -3.25408734165   -7.40273429615   -4.59991284715
|878> NewECP
|879> N_core 0
|880>   lmax f
|881>   s 2
|882>    1      0.860000       9.191690  2
|883>    2      0.172000       0.008301  2
|884>   p 2
|885>    1      0.860000      17.997720  2
|886>    2      0.172000      -0.032600  2
|887>   d 2
|888>    1      1.600000      -9.504310  2
|889>    2      0.320000      -0.151370  2
|890>   f 1
|891>    1      1.000000000    0.000000000 2
|892> end
|893> Ti>    4.00000000000   -3.25401668289    8.88328009748   -1.42716235830
|894> NewECP
|895> N_core 0
|896>   lmax f
|897>   s 2
|898>    1      0.860000       9.191690  2
|899>    2      0.172000       0.008301  2
|900>   p 2
|901>    1      0.860000      17.997720  2
|902>    2      0.172000      -0.032600  2
|903>   d 2
|904>    1      1.600000      -9.504310  2
|905>    2      0.320000      -0.151370  2
|906>   f 1
|907>    1      1.000000000    0.000000000 2
|908> end
|909> Ti>    4.00000000000    3.25402261457    8.88328009748   -1.42716235830
|910> NewECP
|911> N_core 0
|912>   lmax f
|913>   s 2
|914>    1      0.860000       9.191690  2
|915>    2      0.172000       0.008301  2
|916>   p 2
|917>    1      0.860000      17.997720  2
|918>    2      0.172000      -0.032600  2
|919>   d 2
|920>    1      1.600000      -9.504310  2
|921>    2      0.320000      -0.151370  2
|922>   f 1
|923>    1      1.000000000    0.000000000 2
|924> end
|925> Ti>    4.00000000000    3.25402261457   -8.88328111830   -1.42716235830
|926> NewECP
|927> N_core 0
|928>   lmax f
|929>   s 2
|930>    1      0.860000       9.191690  2
|931>    2      0.172000       0.008301  2
|932>   p 2
|933>    1      0.860000      17.997720  2
|934>    2      0.172000      -0.032600  2
|935>   d 2
|936>    1      1.600000      -9.504310  2
|937>    2      0.320000      -0.151370  2
|938>   f 1
|939>    1      1.000000000    0.000000000 2
|940> end
|941> Ti>    4.00000000000   -3.25401668289   -8.88328111830   -1.42716235830
|942> NewECP
|943> N_core 0
|944>   lmax f
|945>   s 2
|946>    1      0.860000       9.191690  2
|947>    2      0.172000       0.008301  2
|948>   p 2
|949>    1      0.860000      17.997720  2
|950>    2      0.172000      -0.032600  2
|951>   d 2
|952>    1      1.600000      -9.504310  2
|953>    2      0.320000      -0.151370  2
|954>   f 1
|955>    1      1.000000000    0.000000000 2
|956> end
|957> Ti>    4.00000000000    6.50798709372    5.92218636178   -4.41288396045
|958> NewECP
|959> N_core 0
|960>   lmax f
|961>   s 2
|962>    1      0.860000       9.191690  2
|963>    2      0.172000       0.008301  2
|964>   p 2
|965>    1      0.860000      17.997720  2
|966>    2      0.172000      -0.032600  2
|967>   d 2
|968>    1      1.600000      -9.504310  2
|969>    2      0.320000      -0.151370  2
|970>   f 1
|971>    1      1.000000000    0.000000000 2
|972> end
|973> Ti>    4.00000000000    6.50798709372   -5.92218778207   -4.41288396045
|974> NewECP
|975> N_core 0
|976>   lmax f
|977>   s 2
|978>    1      0.860000       9.191690  2
|979>    2      0.172000       0.008301  2
|980>   p 2
|981>    1      0.860000      17.997720  2
|982>    2      0.172000      -0.032600  2
|983>   d 2
|984>    1      1.600000      -9.504310  2
|985>    2      0.320000      -0.151370  2
|986>   f 1
|987>    1      1.000000000    0.000000000 2
|988> end
|989> Ti>    4.00000000000   -6.50809150121    5.92218636178   -4.41288396045
|990> NewECP
|991> N_core 0
|992>   lmax f
|993>   s 2
|994>    1      0.860000       9.191690  2
|995>    2      0.172000       0.008301  2
|996>   p 2
|997>    1      0.860000      17.997720  2
|998>    2      0.172000      -0.032600  2
|999>   d 2
|1000>    1      1.600000      -9.504310  2
|1001>    2      0.320000      -0.151370  2
|1002>   f 1
|1003>    1      1.000000000    0.000000000 2
|1004> end
|1005> Ti>    4.00000000000   -6.50809150121   -5.92218778207   -4.41288396045
|1006> NewECP
|1007> N_core 0
|1008>   lmax f
|1009>   s 2
|1010>    1      0.860000       9.191690  2
|1011>    2      0.172000       0.008301  2
|1012>   p 2
|1013>    1      0.860000      17.997720  2
|1014>    2      0.172000      -0.032600  2
|1015>   d 2
|1016>    1      1.600000      -9.504310  2
|1017>    2      0.320000      -0.151370  2
|1018>   f 1
|1019>    1      1.000000000    0.000000000 2
|1020> end
|1021> Ti>    4.00000000000   -0.00005206359    8.88328008829   -4.41288206312
|1022> NewECP
|1023> N_core 0
|1024>   lmax f
|1025>   s 2
|1026>    1      0.860000       9.191690  2
|1027>    2      0.172000       0.008301  2
|1028>   p 2
|1029>    1      0.860000      17.997720  2
|1030>    2      0.172000      -0.032600  2
|1031>   d 2
|1032>    1      1.600000      -9.504310  2
|1033>    2      0.320000      -0.151370  2
|1034>   f 1
|1035>    1      1.000000000    0.000000000 2
|1036> end
|1037> Ti>    4.00000000000   -0.00005206359   -8.88328112748   -4.41288206312
|1038> NewECP
|1039> N_core 0
|1040>   lmax f
|1041>   s 2
|1042>    1      0.860000       9.191690  2
|1043>    2      0.172000       0.008301  2
|1044>   p 2
|1045>    1      0.860000      17.997720  2
|1046>    2      0.172000      -0.032600  2
|1047>   d 2
|1048>    1      1.600000      -9.504310  2
|1049>    2      0.320000      -0.151370  2
|1050>   f 1
|1051>    1      1.000000000    0.000000000 2
|1052> end
|1053> Ti>    4.00000000000   -6.50804236645    1.48054576566   -7.78540932970
|1054> NewECP
|1055> N_core 0
|1056>   lmax f
|1057>   s 2
|1058>    1      0.860000       9.191690  2
|1059>    2      0.172000       0.008301  2
|1060>   p 2
|1061>    1      0.860000      17.997720  2
|1062>    2      0.172000      -0.032600  2
|1063>   d 2
|1064>    1      1.600000      -9.504310  2
|1065>    2      0.320000      -0.151370  2
|1066>   f 1
|1067>    1      1.000000000    0.000000000 2
|1068> end
|1069> Ti>    4.00000000000    6.50803622848    1.48054576566   -7.78540932970
|1070> NewECP
|1071> N_core 0
|1072>   lmax f
|1073>   s 2
|1074>    1      0.860000       9.191690  2
|1075>    2      0.172000       0.008301  2
|1076>   p 2
|1077>    1      0.860000      17.997720  2
|1078>    2      0.172000      -0.032600  2
|1079>   d 2
|1080>    1      1.600000      -9.504310  2
|1081>    2      0.320000      -0.151370  2
|1082>   f 1
|1083>    1      1.000000000    0.000000000 2
|1084> end
|1085> Ti>    4.00000000000    6.50803622848   -1.48054777030   -7.78540932970
|1086> NewECP
|1087> N_core 0
|1088>   lmax f
|1089>   s 2
|1090>    1      0.860000       9.191690  2
|1091>    2      0.172000       0.008301  2
|1092>   p 2
|1093>    1      0.860000      17.997720  2
|1094>    2      0.172000      -0.032600  2
|1095>   d 2
|1096>    1      1.600000      -9.504310  2
|1097>    2      0.320000      -0.151370  2
|1098>   f 1
|1099>    1      1.000000000    0.000000000 2
|1100> end
|1101> Ti>    4.00000000000   -6.50804236645   -1.48054777030   -7.78540932970
|1102> NewECP
|1103> N_core 0
|1104>   lmax f
|1105>   s 2
|1106>    1      0.860000       9.191690  2
|1107>    2      0.172000       0.008301  2
|1108>   p 2
|1109>    1      0.860000      17.997720  2
|1110>    2      0.172000      -0.032600  2
|1111>   d 2
|1112>    1      1.600000      -9.504310  2
|1113>    2      0.320000      -0.151370  2
|1114>   f 1
|1115>    1      1.000000000    0.000000000 2
|1116> end
|1117> Ti>    4.00000000000   -3.25402271772    5.92218606960   -7.78540932970
|1118> NewECP
|1119> N_core 0
|1120>   lmax f
|1121>   s 2
|1122>    1      0.860000       9.191690  2
|1123>    2      0.172000       0.008301  2
|1124>   p 2
|1125>    1      0.860000      17.997720  2
|1126>    2      0.172000      -0.032600  2
|1127>   d 2
|1128>    1      1.600000      -9.504310  2
|1129>    2      0.320000      -0.151370  2
|1130>   f 1
|1131>    1      1.000000000    0.000000000 2
|1132> end
|1133> Ti>    4.00000000000    3.25401657974    5.92218606960   -7.78540932970
|1134> NewECP
|1135> N_core 0
|1136>   lmax f
|1137>   s 2
|1138>    1      0.860000       9.191690  2
|1139>    2      0.172000       0.008301  2
|1140>   p 2
|1141>    1      0.860000      17.997720  2
|1142>    2      0.172000      -0.032600  2
|1143>   d 2
|1144>    1      1.600000      -9.504310  2
|1145>    2      0.320000      -0.151370  2
|1146>   f 1
|1147>    1      1.000000000    0.000000000 2
|1148> end
|1149> Ti>    4.00000000000    3.25401657974   -5.92218807425   -7.78540932970
|1150> NewECP
|1151> N_core 0
|1152>   lmax f
|1153>   s 2
|1154>    1      0.860000       9.191690  2
|1155>    2      0.172000       0.008301  2
|1156>   p 2
|1157>    1      0.860000      17.997720  2
|1158>    2      0.172000      -0.032600  2
|1159>   d 2
|1160>    1      1.600000      -9.504310  2
|1161>    2      0.320000      -0.151370  2
|1162>   f 1
|1163>    1      1.000000000    0.000000000 2
|1164> end
|1165> Ti>    4.00000000000   -3.25402271772   -5.92218807425   -7.78540932970
|1166> NewECP
|1167> N_core 0
|1168>   lmax f
|1169>   s 2
|1170>    1      0.860000       9.191690  2
|1171>    2      0.172000       0.008301  2
|1172>   p 2
|1173>    1      0.860000      17.997720  2
|1174>    2      0.172000      -0.032600  2
|1175>   d 2
|1176>    1      1.600000      -9.504310  2
|1177>    2      0.320000      -0.151370  2
|1178>   f 1
|1179>    1      1.000000000    0.000000000 2
|1180> end
|1181> Ti>    4.00000000000   -0.00000306899    7.40273283758   -7.78540932970
|1182> NewECP
|1183> N_core 0
|1184>   lmax f
|1185>   s 2
|1186>    1      0.860000       9.191690  2
|1187>    2      0.172000       0.008301  2
|1188>   p 2
|1189>    1      0.860000      17.997720  2
|1190>    2      0.172000      -0.032600  2
|1191>   d 2
|1192>    1      1.600000      -9.504310  2
|1193>    2      0.320000      -0.151370  2
|1194>   f 1
|1195>    1      1.000000000    0.000000000 2
|1196> end
|1197> Ti>    4.00000000000   -0.00000306899   -7.40273484223   -7.78540932970
|1198> NewECP
|1199> N_core 0
|1200>   lmax f
|1201>   s 2
|1202>    1      0.860000       9.191690  2
|1203>    2      0.172000       0.008301  2
|1204>   p 2
|1205>    1      0.860000      17.997720  2
|1206>    2      0.172000      -0.032600  2
|1207>   d 2
|1208>    1      1.600000      -9.504310  2
|1209>    2      0.320000      -0.151370  2
|1210>   f 1
|1211>    1      1.000000000    0.000000000 2
|1212> end
|1213> Ti>    4.00000000000   -0.00000306899   -0.00000100232  -11.03942897843
|1214> NewECP
|1215> N_core 0
|1216>   lmax f
|1217>   s 2
|1218>    1      0.860000       9.191690  2
|1219>    2      0.172000       0.008301  2
|1220>   p 2
|1221>    1      0.860000      17.997720  2
|1222>    2      0.172000      -0.032600  2
|1223>   d 2
|1224>    1      1.600000      -9.504310  2
|1225>    2      0.320000      -0.151370  2
|1226>   f 1
|1227>    1      1.000000000    0.000000000 2
|1228> end
|1229> Ti>    4.00000000000   -6.50804236645    4.44163930162   -7.78540932970
|1230> NewECP
|1231> N_core 0
|1232>   lmax f
|1233>   s 2
|1234>    1      0.860000       9.191690  2
|1235>    2      0.172000       0.008301  2
|1236>   p 2
|1237>    1      0.860000      17.997720  2
|1238>    2      0.172000      -0.032600  2
|1239>   d 2
|1240>    1      1.600000      -9.504310  2
|1241>    2      0.320000      -0.151370  2
|1242>   f 1
|1243>    1      1.000000000    0.000000000 2
|1244> end
|1245> Ti>    4.00000000000    6.50803622848    4.44163930162   -7.78540932970
|1246> NewECP
|1247> N_core 0
|1248>   lmax f
|1249>   s 2
|1250>    1      0.860000       9.191690  2
|1251>    2      0.172000       0.008301  2
|1252>   p 2
|1253>    1      0.860000      17.997720  2
|1254>    2      0.172000      -0.032600  2
|1255>   d 2
|1256>    1      1.600000      -9.504310  2
|1257>    2      0.320000      -0.151370  2
|1258>   f 1
|1259>    1      1.000000000    0.000000000 2
|1260> end
|1261> Ti>    4.00000000000    6.50803622848   -4.44164130627   -7.78540932970
|1262> NewECP
|1263> N_core 0
|1264>   lmax f
|1265>   s 2
|1266>    1      0.860000       9.191690  2
|1267>    2      0.172000       0.008301  2
|1268>   p 2
|1269>    1      0.860000      17.997720  2
|1270>    2      0.172000      -0.032600  2
|1271>   d 2
|1272>    1      1.600000      -9.504310  2
|1273>    2      0.320000      -0.151370  2
|1274>   f 1
|1275>    1      1.000000000    0.000000000 2
|1276> end
|1277> Ti>    4.00000000000   -6.50804236645   -4.44164130627   -7.78540932970
|1278> NewECP
|1279> N_core 0
|1280>   lmax f
|1281>   s 2
|1282>    1      0.860000       9.191690  2
|1283>    2      0.172000       0.008301  2
|1284>   p 2
|1285>    1      0.860000      17.997720  2
|1286>    2      0.172000      -0.032600  2
|1287>   d 2
|1288>    1      1.600000      -9.504310  2
|1289>    2      0.320000      -0.151370  2
|1290>   f 1
|1291>    1      1.000000000    0.000000000 2
|1292> end
|1293> Ti>    4.00000000000   -0.00000306899    2.96109253364  -11.03942897843
|1294> NewECP
|1295> N_core 0
|1296>   lmax f
|1297>   s 2
|1298>    1      0.860000       9.191690  2
|1299>    2      0.172000       0.008301  2
|1300>   p 2
|1301>    1      0.860000      17.997720  2
|1302>    2      0.172000      -0.032600  2
|1303>   d 2
|1304>    1      1.600000      -9.504310  2
|1305>    2      0.320000      -0.151370  2
|1306>   f 1
|1307>    1      1.000000000    0.000000000 2
|1308> end
|1309> Ti>    4.00000000000   -0.00000306899   -2.96109453828  -11.03942897843
|1310> NewECP
|1311> N_core 0
|1312>   lmax f
|1313>   s 2
|1314>    1      0.860000       9.191690  2
|1315>    2      0.172000       0.008301  2
|1316>   p 2
|1317>    1      0.860000      17.997720  2
|1318>    2      0.172000      -0.032600  2
|1319>   d 2
|1320>    1      1.600000      -9.504310  2
|1321>    2      0.320000      -0.151370  2
|1322>   f 1
|1323>    1      1.000000000    0.000000000 2
|1324> end
|1325> Ti>    4.00000000000   -3.25402271772    1.48054576566  -11.03942897843
|1326> NewECP
|1327> N_core 0
|1328>   lmax f
|1329>   s 2
|1330>    1      0.860000       9.191690  2
|1331>    2      0.172000       0.008301  2
|1332>   p 2
|1333>    1      0.860000      17.997720  2
|1334>    2      0.172000      -0.032600  2
|1335>   d 2
|1336>    1      1.600000      -9.504310  2
|1337>    2      0.320000      -0.151370  2
|1338>   f 1
|1339>    1      1.000000000    0.000000000 2
|1340> end
|1341> Ti>    4.00000000000    3.25401657974    1.48054576566  -11.03942897843
|1342> NewECP
|1343> N_core 0
|1344>   lmax f
|1345>   s 2
|1346>    1      0.860000       9.191690  2
|1347>    2      0.172000       0.008301  2
|1348>   p 2
|1349>    1      0.860000      17.997720  2
|1350>    2      0.172000      -0.032600  2
|1351>   d 2
|1352>    1      1.600000      -9.504310  2
|1353>    2      0.320000      -0.151370  2
|1354>   f 1
|1355>    1      1.000000000    0.000000000 2
|1356> end
|1357> Ti>    4.00000000000    3.25401657974   -1.48054777030  -11.03942897843
|1358> NewECP
|1359> N_core 0
|1360>   lmax f
|1361>   s 2
|1362>    1      0.860000       9.191690  2
|1363>    2      0.172000       0.008301  2
|1364>   p 2
|1365>    1      0.860000      17.997720  2
|1366>    2      0.172000      -0.032600  2
|1367>   d 2
|1368>    1      1.600000      -9.504310  2
|1369>    2      0.320000      -0.151370  2
|1370>   f 1
|1371>    1      1.000000000    0.000000000 2
|1372> end
|1373> Ti>    4.00000000000   -3.25402271772   -1.48054777030  -11.03942897843
|1374> NewECP
|1375> N_core 0
|1376>   lmax f
|1377>   s 2
|1378>    1      0.860000       9.191690  2
|1379>    2      0.172000       0.008301  2
|1380>   p 2
|1381>    1      0.860000      17.997720  2
|1382>    2      0.172000      -0.032600  2
|1383>   d 2
|1384>    1      1.600000      -9.504310  2
|1385>    2      0.320000      -0.151370  2
|1386>   f 1
|1387>    1      1.000000000    0.000000000 2
|1388> end
|1389> Ti>    4.00000000000   -3.25402271772    8.88327960557   -7.78540932970
|1390> NewECP
|1391> N_core 0
|1392>   lmax f
|1393>   s 2
|1394>    1      0.860000       9.191690  2
|1395>    2      0.172000       0.008301  2
|1396>   p 2
|1397>    1      0.860000      17.997720  2
|1398>    2      0.172000      -0.032600  2
|1399>   d 2
|1400>    1      1.600000      -9.504310  2
|1401>    2      0.320000      -0.151370  2
|1402>   f 1
|1403>    1      1.000000000    0.000000000 2
|1404> end
|1405> Ti>    4.00000000000    3.25401657974    8.88327960557   -7.78540932970
|1406> NewECP
|1407> N_core 0
|1408>   lmax f
|1409>   s 2
|1410>    1      0.860000       9.191690  2
|1411>    2      0.172000       0.008301  2
|1412>   p 2
|1413>    1      0.860000      17.997720  2
|1414>    2      0.172000      -0.032600  2
|1415>   d 2
|1416>    1      1.600000      -9.504310  2
|1417>    2      0.320000      -0.151370  2
|1418>   f 1
|1419>    1      1.000000000    0.000000000 2
|1420> end
|1421> Ti>    4.00000000000    3.25401657974   -8.88328161021   -7.78540932970
|1422> NewECP
|1423> N_core 0
|1424>   lmax f
|1425>   s 2
|1426>    1      0.860000       9.191690  2
|1427>    2      0.172000       0.008301  2
|1428>   p 2
|1429>    1      0.860000      17.997720  2
|1430>    2      0.172000      -0.032600  2
|1431>   d 2
|1432>    1      1.600000      -9.504310  2
|1433>    2      0.320000      -0.151370  2
|1434>   f 1
|1435>    1      1.000000000    0.000000000 2
|1436> end
|1437> Ti>    4.00000000000   -3.25402271772   -8.88328161021   -7.78540932970
|1438> NewECP
|1439> N_core 0
|1440>   lmax f
|1441>   s 2
|1442>    1      0.860000       9.191690  2
|1443>    2      0.172000       0.008301  2
|1444>   p 2
|1445>    1      0.860000      17.997720  2
|1446>    2      0.172000      -0.032600  2
|1447>   d 2
|1448>    1      1.600000      -9.504310  2
|1449>    2      0.320000      -0.151370  2
|1450>   f 1
|1451>    1      1.000000000    0.000000000 2
|1452> end
|1453> Ti>    4.00000000000   -3.25402271772    4.44163930162  -11.03942897843
|1454> NewECP
|1455> N_core 0
|1456>   lmax f
|1457>   s 2
|1458>    1      0.860000       9.191690  2
|1459>    2      0.172000       0.008301  2
|1460>   p 2
|1461>    1      0.860000      17.997720  2
|1462>    2      0.172000      -0.032600  2
|1463>   d 2
|1464>    1      1.600000      -9.504310  2
|1465>    2      0.320000      -0.151370  2
|1466>   f 1
|1467>    1      1.000000000    0.000000000 2
|1468> end
|1469> Ti>    4.00000000000    3.25401657974    4.44163930162  -11.03942897843
|1470> NewECP
|1471> N_core 0
|1472>   lmax f
|1473>   s 2
|1474>    1      0.860000       9.191690  2
|1475>    2      0.172000       0.008301  2
|1476>   p 2
|1477>    1      0.860000      17.997720  2
|1478>    2      0.172000      -0.032600  2
|1479>   d 2
|1480>    1      1.600000      -9.504310  2
|1481>    2      0.320000      -0.151370  2
|1482>   f 1
|1483>    1      1.000000000    0.000000000 2
|1484> end
|1485> Ti>    4.00000000000    3.25401657974   -4.44164130627  -11.03942897843
|1486> NewECP
|1487> N_core 0
|1488>   lmax f
|1489>   s 2
|1490>    1      0.860000       9.191690  2
|1491>    2      0.172000       0.008301  2
|1492>   p 2
|1493>    1      0.860000      17.997720  2
|1494>    2      0.172000      -0.032600  2
|1495>   d 2
|1496>    1      1.600000      -9.504310  2
|1497>    2      0.320000      -0.151370  2
|1498>   f 1
|1499>    1      1.000000000    0.000000000 2
|1500> end
|1501> Ti>    4.00000000000   -3.25402271772   -4.44164130627  -11.03942897843
|1502> NewECP
|1503> N_core 0
|1504>   lmax f
|1505>   s 2
|1506>    1      0.860000       9.191690  2
|1507>    2      0.172000       0.008301  2
|1508>   p 2
|1509>    1      0.860000      17.997720  2
|1510>    2      0.172000      -0.032600  2
|1511>   d 2
|1512>    1      1.600000      -9.504310  2
|1513>    2      0.320000      -0.151370  2
|1514>   f 1
|1515>    1      1.000000000    0.000000000 2
|1516> end
|1517> Ti>    4.00000000000   -0.00000306899    5.92218606960  -11.03942897843
|1518> NewECP
|1519> N_core 0
|1520>   lmax f
|1521>   s 2
|1522>    1      0.860000       9.191690  2
|1523>    2      0.172000       0.008301  2
|1524>   p 2
|1525>    1      0.860000      17.997720  2
|1526>    2      0.172000      -0.032600  2
|1527>   d 2
|1528>    1      1.600000      -9.504310  2
|1529>    2      0.320000      -0.151370  2
|1530>   f 1
|1531>    1      1.000000000    0.000000000 2
|1532> end
|1533> Ti>    4.00000000000   -0.00000306899   -5.92218807425  -11.03942897843
|1534> NewECP
|1535> N_core 0
|1536>   lmax f
|1537>   s 2
|1538>    1      0.860000       9.191690  2
|1539>    2      0.172000       0.008301  2
|1540>   p 2
|1541>    1      0.860000      17.997720  2
|1542>    2      0.172000      -0.032600  2
|1543>   d 2
|1544>    1      1.600000      -9.504310  2
|1545>    2      0.320000      -0.151370  2
|1546>   f 1
|1547>    1      1.000000000    0.000000000 2
|1548> end
|1549> Ti>    4.00000000000    6.50803622848   -0.00000100232  -11.03942897843
|1550> NewECP
|1551> N_core 0
|1552>   lmax f
|1553>   s 2
|1554>    1      0.860000       9.191690  2
|1555>    2      0.172000       0.008301  2
|1556>   p 2
|1557>    1      0.860000      17.997720  2
|1558>    2      0.172000      -0.032600  2
|1559>   d 2
|1560>    1      1.600000      -9.504310  2
|1561>    2      0.320000      -0.151370  2
|1562>   f 1
|1563>    1      1.000000000    0.000000000 2
|1564> end
|1565> Ti>    4.00000000000   -6.50804236645   -0.00000100232  -11.03942897843
|1566> NewECP
|1567> N_core 0
|1568>   lmax f
|1569>   s 2
|1570>    1      0.860000       9.191690  2
|1571>    2      0.172000       0.008301  2
|1572>   p 2
|1573>    1      0.860000      17.997720  2
|1574>    2      0.172000      -0.032600  2
|1575>   d 2
|1576>    1      1.600000      -9.504310  2
|1577>    2      0.320000      -0.151370  2
|1578>   f 1
|1579>    1      1.000000000    0.000000000 2
|1580> end
|1581> Ti>    4.00000000000   -6.50804236645    2.96109253364  -11.03942897843
|1582> NewECP
|1583> N_core 0
|1584>   lmax f
|1585>   s 2
|1586>    1      0.860000       9.191690  2
|1587>    2      0.172000       0.008301  2
|1588>   p 2
|1589>    1      0.860000      17.997720  2
|1590>    2      0.172000      -0.032600  2
|1591>   d 2
|1592>    1      1.600000      -9.504310  2
|1593>    2      0.320000      -0.151370  2
|1594>   f 1
|1595>    1      1.000000000    0.000000000 2
|1596> end
|1597> Ti>    4.00000000000    6.50803622848    2.96109253364  -11.03942897843
|1598> NewECP
|1599> N_core 0
|1600>   lmax f
|1601>   s 2
|1602>    1      0.860000       9.191690  2
|1603>    2      0.172000       0.008301  2
|1604>   p 2
|1605>    1      0.860000      17.997720  2
|1606>    2      0.172000      -0.032600  2
|1607>   d 2
|1608>    1      1.600000      -9.504310  2
|1609>    2      0.320000      -0.151370  2
|1610>   f 1
|1611>    1      1.000000000    0.000000000 2
|1612> end
|1613> Ti>    4.00000000000    6.50803622848   -2.96109453828  -11.03942897843
|1614> NewECP
|1615> N_core 0
|1616>   lmax f
|1617>   s 2
|1618>    1      0.860000       9.191690  2
|1619>    2      0.172000       0.008301  2
|1620>   p 2
|1621>    1      0.860000      17.997720  2
|1622>    2      0.172000      -0.032600  2
|1623>   d 2
|1624>    1      1.600000      -9.504310  2
|1625>    2      0.320000      -0.151370  2
|1626>   f 1
|1627>    1      1.000000000    0.000000000 2
|1628> end
|1629> Ti>    4.00000000000   -6.50804236645   -2.96109453828  -11.03942897843
|1630> NewECP
|1631> N_core 0
|1632>   lmax f
|1633>   s 2
|1634>    1      0.860000       9.191690  2
|1635>    2      0.172000       0.008301  2
|1636>   p 2
|1637>    1      0.860000      17.997720  2
|1638>    2      0.172000      -0.032600  2
|1639>   d 2
|1640>    1      1.600000      -9.504310  2
|1641>    2      0.320000      -0.151370  2
|1642>   f 1
|1643>    1      1.000000000    0.000000000 2
|1644> end
|1645> Ti>    4.00000000000   -3.25402271772    7.40273283758  -11.03942897843
|1646> NewECP
|1647> N_core 0
|1648>   lmax f
|1649>   s 2
|1650>    1      0.860000       9.191690  2
|1651>    2      0.172000       0.008301  2
|1652>   p 2
|1653>    1      0.860000      17.997720  2
|1654>    2      0.172000      -0.032600  2
|1655>   d 2
|1656>    1      1.600000      -9.504310  2
|1657>    2      0.320000      -0.151370  2
|1658>   f 1
|1659>    1      1.000000000    0.000000000 2
|1660> end
|1661> Ti>    4.00000000000    3.25401657974    7.40273283758  -11.03942897843
|1662> NewECP
|1663> N_core 0
|1664>   lmax f
|1665>   s 2
|1666>    1      0.860000       9.191690  2
|1667>    2      0.172000       0.008301  2
|1668>   p 2
|1669>    1      0.860000      17.997720  2
|1670>    2      0.172000      -0.032600  2
|1671>   d 2
|1672>    1      1.600000      -9.504310  2
|1673>    2      0.320000      -0.151370  2
|1674>   f 1
|1675>    1      1.000000000    0.000000000 2
|1676> end
|1677> Ti>    4.00000000000    3.25401657974   -7.40273484223  -11.03942897843
|1678> NewECP
|1679> N_core 0
|1680>   lmax f
|1681>   s 2
|1682>    1      0.860000       9.191690  2
|1683>    2      0.172000       0.008301  2
|1684>   p 2
|1685>    1      0.860000      17.997720  2
|1686>    2      0.172000      -0.032600  2
|1687>   d 2
|1688>    1      1.600000      -9.504310  2
|1689>    2      0.320000      -0.151370  2
|1690>   f 1
|1691>    1      1.000000000    0.000000000 2
|1692> end
|1693> Ti>    4.00000000000   -3.25402271772   -7.40273484223  -11.03942897843
|1694> NewECP
|1695> N_core 0
|1696>   lmax f
|1697>   s 2
|1698>    1      0.860000       9.191690  2
|1699>    2      0.172000       0.008301  2
|1700>   p 2
|1701>    1      0.860000      17.997720  2
|1702>    2      0.172000      -0.032600  2
|1703>   d 2
|1704>    1      1.600000      -9.504310  2
|1705>    2      0.320000      -0.151370  2
|1706>   f 1
|1707>    1      1.000000000    0.000000000 2
|1708> end
|1709> Ti>    4.00000000000   -0.00000306899    8.88327960557  -11.03942897843
|1710> NewECP
|1711> N_core 0
|1712>   lmax f
|1713>   s 2
|1714>    1      0.860000       9.191690  2
|1715>    2      0.172000       0.008301  2
|1716>   p 2
|1717>    1      0.860000      17.997720  2
|1718>    2      0.172000      -0.032600  2
|1719>   d 2
|1720>    1      1.600000      -9.504310  2
|1721>    2      0.320000      -0.151370  2
|1722>   f 1
|1723>    1      1.000000000    0.000000000 2
|1724> end
|1725> Ti>    4.00000000000   -0.00000306899   -8.88328161021  -11.03942897843
|1726> NewECP
|1727> N_core 0
|1728>   lmax f
|1729>   s 2
|1730>    1      0.860000       9.191690  2
|1731>    2      0.172000       0.008301  2
|1732>   p 2
|1733>    1      0.860000      17.997720  2
|1734>    2      0.172000      -0.032600  2
|1735>   d 2
|1736>    1      1.600000      -9.504310  2
|1737>    2      0.320000      -0.151370  2
|1738>   f 1
|1739>    1      1.000000000    0.000000000 2
|1740> end
|1741> Ti>    4.00000000000   -0.00000306899    1.48054576566  -14.29344862716
|1742> NewECP
|1743> N_core 0
|1744>   lmax f
|1745>   s 2
|1746>    1      0.860000       9.191690  2
|1747>    2      0.172000       0.008301  2
|1748>   p 2
|1749>    1      0.860000      17.997720  2
|1750>    2      0.172000      -0.032600  2
|1751>   d 2
|1752>    1      1.600000      -9.504310  2
|1753>    2      0.320000      -0.151370  2
|1754>   f 1
|1755>    1      1.000000000    0.000000000 2
|1756> end
|1757> Ti>    4.00000000000   -0.00000306899   -1.48054777030  -14.29344862716
|1758> NewECP
|1759> N_core 0
|1760>   lmax f
|1761>   s 2
|1762>    1      0.860000       9.191690  2
|1763>    2      0.172000       0.008301  2
|1764>   p 2
|1765>    1      0.860000      17.997720  2
|1766>    2      0.172000      -0.032600  2
|1767>   d 2
|1768>    1      1.600000      -9.504310  2
|1769>    2      0.320000      -0.151370  2
|1770>   f 1
|1771>    1      1.000000000    0.000000000 2
|1772> end
|1773> Ti>    4.00000000000    3.25401657974   -0.00000100232  -14.29344862716
|1774> NewECP
|1775> N_core 0
|1776>   lmax f
|1777>   s 2
|1778>    1      0.860000       9.191690  2
|1779>    2      0.172000       0.008301  2
|1780>   p 2
|1781>    1      0.860000      17.997720  2
|1782>    2      0.172000      -0.032600  2
|1783>   d 2
|1784>    1      1.600000      -9.504310  2
|1785>    2      0.320000      -0.151370  2
|1786>   f 1
|1787>    1      1.000000000    0.000000000 2
|1788> end
|1789> Ti>    4.00000000000   -3.25402271772   -0.00000100232  -14.29344862716
|1790> NewECP
|1791> N_core 0
|1792>   lmax f
|1793>   s 2
|1794>    1      0.860000       9.191690  2
|1795>    2      0.172000       0.008301  2
|1796>   p 2
|1797>    1      0.860000      17.997720  2
|1798>    2      0.172000      -0.032600  2
|1799>   d 2
|1800>    1      1.600000      -9.504310  2
|1801>    2      0.320000      -0.151370  2
|1802>   f 1
|1803>    1      1.000000000    0.000000000 2
|1804> end
|1805> Ti>    4.00000000000   -3.25402271772    2.96109253364  -14.29344862716
|1806> NewECP
|1807> N_core 0
|1808>   lmax f
|1809>   s 2
|1810>    1      0.860000       9.191690  2
|1811>    2      0.172000       0.008301  2
|1812>   p 2
|1813>    1      0.860000      17.997720  2
|1814>    2      0.172000      -0.032600  2
|1815>   d 2
|1816>    1      1.600000      -9.504310  2
|1817>    2      0.320000      -0.151370  2
|1818>   f 1
|1819>    1      1.000000000    0.000000000 2
|1820> end
|1821> Ti>    4.00000000000    3.25401657974    2.96109253364  -14.29344862716
|1822> NewECP
|1823> N_core 0
|1824>   lmax f
|1825>   s 2
|1826>    1      0.860000       9.191690  2
|1827>    2      0.172000       0.008301  2
|1828>   p 2
|1829>    1      0.860000      17.997720  2
|1830>    2      0.172000      -0.032600  2
|1831>   d 2
|1832>    1      1.600000      -9.504310  2
|1833>    2      0.320000      -0.151370  2
|1834>   f 1
|1835>    1      1.000000000    0.000000000 2
|1836> end
|1837> Ti>    4.00000000000    3.25401657974   -2.96109453828  -14.29344862716
|1838> NewECP
|1839> N_core 0
|1840>   lmax f
|1841>   s 2
|1842>    1      0.860000       9.191690  2
|1843>    2      0.172000       0.008301  2
|1844>   p 2
|1845>    1      0.860000      17.997720  2
|1846>    2      0.172000      -0.032600  2
|1847>   d 2
|1848>    1      1.600000      -9.504310  2
|1849>    2      0.320000      -0.151370  2
|1850>   f 1
|1851>    1      1.000000000    0.000000000 2
|1852> end
|1853> Ti>    4.00000000000   -3.25402271772   -2.96109453828  -14.29344862716
|1854> NewECP
|1855> N_core 0
|1856>   lmax f
|1857>   s 2
|1858>    1      0.860000       9.191690  2
|1859>    2      0.172000       0.008301  2
|1860>   p 2
|1861>    1      0.860000      17.997720  2
|1862>    2      0.172000      -0.032600  2
|1863>   d 2
|1864>    1      1.600000      -9.504310  2
|1865>    2      0.320000      -0.151370  2
|1866>   f 1
|1867>    1      1.000000000    0.000000000 2
|1868> end
|1869> Ti>    4.00000000000   -0.00000306899    4.44163930162  -14.29344862716
|1870> NewECP
|1871> N_core 0
|1872>   lmax f
|1873>   s 2
|1874>    1      0.860000       9.191690  2
|1875>    2      0.172000       0.008301  2
|1876>   p 2
|1877>    1      0.860000      17.997720  2
|1878>    2      0.172000      -0.032600  2
|1879>   d 2
|1880>    1      1.600000      -9.504310  2
|1881>    2      0.320000      -0.151370  2
|1882>   f 1
|1883>    1      1.000000000    0.000000000 2
|1884> end
|1885> Ti>    4.00000000000   -0.00000306899   -4.44164130627  -14.29344862716
|1886> NewECP
|1887> N_core 0
|1888>   lmax f
|1889>   s 2
|1890>    1      0.860000       9.191690  2
|1891>    2      0.172000       0.008301  2
|1892>   p 2
|1893>    1      0.860000      17.997720  2
|1894>    2      0.172000      -0.032600  2
|1895>   d 2
|1896>    1      1.600000      -9.504310  2
|1897>    2      0.320000      -0.151370  2
|1898>   f 1
|1899>    1      1.000000000    0.000000000 2
|1900> end
|1901> Ti>    4.00000000000   -3.25402271772    5.92218606960  -14.29344862716
|1902> NewECP
|1903> N_core 0
|1904>   lmax f
|1905>   s 2
|1906>    1      0.860000       9.191690  2
|1907>    2      0.172000       0.008301  2
|1908>   p 2
|1909>    1      0.860000      17.997720  2
|1910>    2      0.172000      -0.032600  2
|1911>   d 2
|1912>    1      1.600000      -9.504310  2
|1913>    2      0.320000      -0.151370  2
|1914>   f 1
|1915>    1      1.000000000    0.000000000 2
|1916> end
|1917> Ti>    4.00000000000    3.25401657974    5.92218606960  -14.29344862716
|1918> NewECP
|1919> N_core 0
|1920>   lmax f
|1921>   s 2
|1922>    1      0.860000       9.191690  2
|1923>    2      0.172000       0.008301  2
|1924>   p 2
|1925>    1      0.860000      17.997720  2
|1926>    2      0.172000      -0.032600  2
|1927>   d 2
|1928>    1      1.600000      -9.504310  2
|1929>    2      0.320000      -0.151370  2
|1930>   f 1
|1931>    1      1.000000000    0.000000000 2
|1932> end
|1933> Ti>    4.00000000000    3.25401657974   -5.92218807425  -14.29344862716
|1934> NewECP
|1935> N_core 0
|1936>   lmax f
|1937>   s 2
|1938>    1      0.860000       9.191690  2
|1939>    2      0.172000       0.008301  2
|1940>   p 2
|1941>    1      0.860000      17.997720  2
|1942>    2      0.172000      -0.032600  2
|1943>   d 2
|1944>    1      1.600000      -9.504310  2
|1945>    2      0.320000      -0.151370  2
|1946>   f 1
|1947>    1      1.000000000    0.000000000 2
|1948> end
|1949> Ti>    4.00000000000   -3.25402271772   -5.92218807425  -14.29344862716
|1950> NewECP
|1951> N_core 0
|1952>   lmax f
|1953>   s 2
|1954>    1      0.860000       9.191690  2
|1955>    2      0.172000       0.008301  2
|1956>   p 2
|1957>    1      0.860000      17.997720  2
|1958>    2      0.172000      -0.032600  2
|1959>   d 2
|1960>    1      1.600000      -9.504310  2
|1961>    2      0.320000      -0.151370  2
|1962>   f 1
|1963>    1      1.000000000    0.000000000 2
|1964> end
|1965> Ti>    4.00000000000   -0.00000306899    7.40273283758  -14.29344862716
|1966> NewECP
|1967> N_core 0
|1968>   lmax f
|1969>   s 2
|1970>    1      0.860000       9.191690  2
|1971>    2      0.172000       0.008301  2
|1972>   p 2
|1973>    1      0.860000      17.997720  2
|1974>    2      0.172000      -0.032600  2
|1975>   d 2
|1976>    1      1.600000      -9.504310  2
|1977>    2      0.320000      -0.151370  2
|1978>   f 1
|1979>    1      1.000000000    0.000000000 2
|1980> end
|1981> Ti>    4.00000000000   -0.00000306899   -7.40273484223  -14.29344862716
|1982> NewECP
|1983> N_core 0
|1984>   lmax f
|1985>   s 2
|1986>    1      0.860000       9.191690  2
|1987>    2      0.172000       0.008301  2
|1988>   p 2
|1989>    1      0.860000      17.997720  2
|1990>    2      0.172000      -0.032600  2
|1991>   d 2
|1992>    1      1.600000      -9.504310  2
|1993>    2      0.320000      -0.151370  2
|1994>   f 1
|1995>    1      1.000000000    0.000000000 2
|1996> end
|1997>   end
|1998> endd                         ****END OF INPUT****
================================================================================

                       ****************************
                       * Single Point Calculation *
                       ****************************

---------------------------------
CARTESIAN COORDINATES (ANGSTROEM)
---------------------------------
  O      0.000000    0.000000    0.000000
  Ti     0.000005    1.480551   -1.068926
  Ti     0.000006   -1.480553   -1.068921
  O      0.000004   -0.000001   -2.548403
  O     -2.035259    1.480545   -1.111494
  O      2.035265    1.480545   -1.111492
  O      2.035265   -1.480547   -1.111493
  O     -2.035259   -1.480547   -1.111495
  O     -0.000000    2.961092   -0.000003
  O     -0.000000   -2.961096   -0.000003
  O      0.000004    2.961092   -2.548404
  O      0.000004   -2.961095   -2.548404
  Ti    -0.000052   -0.000001   -4.412884
  O     -1.301068    1.480546   -4.516450
  O      1.301091    1.480546   -4.516455
  O      1.301091   -1.480548   -4.516455
  O     -1.301068   -1.480548   -4.516449
  O     -0.000003   -0.000001   -6.513318
  O     -0.000003    2.961093   -6.513318
  O     -0.000003   -2.961095   -6.513318
  Ti    -0.000003    1.480546   -7.785409
  Ti    -0.000003   -1.480548   -7.785409
  O     -1.981931    1.480546   -7.785409
  O      1.981925    1.480546   -7.785409
  O      1.981925   -1.480548   -7.785409
  O     -1.981931   -1.480548   -7.785409
  O     -0.000003   -0.000001   -9.057501
  O     -0.000003    2.961093   -9.057501
  O     -0.000003   -2.961095   -9.057501
  Ti>    3.254023   -0.000001   -1.427162
  Ti>   -3.254016   -0.000001   -1.427162
  Ti>    0.000006    4.441634   -1.068921
  Ti>    0.000005   -4.441636   -1.068926
  Ti>   -3.254017    2.961093   -1.427162
  Ti>    3.254023    2.961093   -1.427162
  Ti>    3.254023   -2.961094   -1.427162
  Ti>   -3.254017   -2.961094   -1.427162
  Ti>   -0.000052    2.961093   -4.412882
  Ti>   -0.000052   -2.961094   -4.412882
  Ti>    3.253952    1.480545   -4.599913
  Ti>    3.253952   -1.480547   -4.599913
  Ti>   -3.254087    1.480545   -4.599913
  Ti>   -3.254087   -1.480547   -4.599913
  Ti>   -6.508034    1.480551   -1.068926
  Ti>    6.508045    1.480551   -1.068926
  Ti>    6.508045   -1.480553   -1.068921
  Ti>   -6.508034   -1.480553   -1.068921
  Ti>   -3.254016    5.922186   -1.427162
  Ti>    3.254023    5.922186   -1.427162
  Ti>    3.254023   -5.922188   -1.427162
  Ti>   -3.254016   -5.922188   -1.427162
  Ti>    3.253952    4.441640   -4.599913
  Ti>    3.253952   -4.441642   -4.599913
  Ti>   -3.254087    4.441640   -4.599913
  Ti>   -3.254087   -4.441642   -4.599913
  Ti>   -0.000052    5.922186   -4.412884
  Ti>   -0.000052   -5.922188   -4.412884
  Ti>    0.000005    7.402739   -1.068926
  Ti>    0.000006   -7.402740   -1.068921
  Ti>    6.507987   -0.000001   -4.412884
  Ti>   -6.508092   -0.000001   -4.412884
  Ti>   -6.508034    4.441634   -1.068921
  Ti>    6.508045    4.441634   -1.068921
  Ti>    6.508045   -4.441636   -1.068926
  Ti>   -6.508034   -4.441636   -1.068926
  Ti>    6.507987    2.961093   -4.412882
  Ti>    6.507987   -2.961094   -4.412882
  Ti>   -6.508091    2.961093   -4.412882
  Ti>   -6.508091   -2.961094   -4.412882
  Ti>    3.254017   -0.000001   -7.785409
  Ti>   -3.254023   -0.000001   -7.785409
  Ti>   -3.254023    2.961093   -7.785409
  Ti>    3.254017    2.961093   -7.785409
  Ti>    3.254017   -2.961095   -7.785409
  Ti>   -3.254023   -2.961095   -7.785409
  Ti>   -0.000003    4.441639   -7.785409
  Ti>   -0.000003   -4.441641   -7.785409
  Ti>   -3.254087    7.402732   -4.599913
  Ti>    3.253952    7.402732   -4.599913
  Ti>    3.253952   -7.402734   -4.599913
  Ti>   -3.254087   -7.402734   -4.599913
  Ti>   -3.254017    8.883280   -1.427162
  Ti>    3.254023    8.883280   -1.427162
  Ti>    3.254023   -8.883281   -1.427162
  Ti>   -3.254017   -8.883281   -1.427162
  Ti>    6.507987    5.922186   -4.412884
  Ti>    6.507987   -5.922188   -4.412884
  Ti>   -6.508092    5.922186   -4.412884
  Ti>   -6.508092   -5.922188   -4.412884
  Ti>   -0.000052    8.883280   -4.412882
  Ti>   -0.000052   -8.883281   -4.412882
  Ti>   -6.508042    1.480546   -7.785409
  Ti>    6.508036    1.480546   -7.785409
  Ti>    6.508036   -1.480548   -7.785409
  Ti>   -6.508042   -1.480548   -7.785409
  Ti>   -3.254023    5.922186   -7.785409
  Ti>    3.254017    5.922186   -7.785409
  Ti>    3.254017   -5.922188   -7.785409
  Ti>   -3.254023   -5.922188   -7.785409
  Ti>   -0.000003    7.402733   -7.785409
  Ti>   -0.000003   -7.402735   -7.785409
  Ti>   -0.000003   -0.000001  -11.039429
  Ti>   -6.508042    4.441639   -7.785409
  Ti>    6.508036    4.441639   -7.785409
  Ti>    6.508036   -4.441641   -7.785409
  Ti>   -6.508042   -4.441641   -7.785409
  Ti>   -0.000003    2.961093  -11.039429
  Ti>   -0.000003   -2.961095  -11.039429
  Ti>   -3.254023    1.480546  -11.039429
  Ti>    3.254017    1.480546  -11.039429
  Ti>    3.254017   -1.480548  -11.039429
  Ti>   -3.254023   -1.480548  -11.039429
  Ti>   -3.254023    8.883280   -7.785409
  Ti>    3.254017    8.883280   -7.785409
  Ti>    3.254017   -8.883282   -7.785409
  Ti>   -3.254023   -8.883282   -7.785409
  Ti>   -3.254023    4.441639  -11.039429
  Ti>    3.254017    4.441639  -11.039429
  Ti>    3.254017   -4.441641  -11.039429
  Ti>   -3.254023   -4.441641  -11.039429
  Ti>   -0.000003    5.922186  -11.039429
  Ti>   -0.000003   -5.922188  -11.039429
  Ti>    6.508036   -0.000001  -11.039429
  Ti>   -6.508042   -0.000001  -11.039429
  Ti>   -6.508042    2.961093  -11.039429
  Ti>    6.508036    2.961093  -11.039429
  Ti>    6.508036   -2.961095  -11.039429
  Ti>   -6.508042   -2.961095  -11.039429
  Ti>   -3.254023    7.402733  -11.039429
  Ti>    3.254017    7.402733  -11.039429
  Ti>    3.254017   -7.402735  -11.039429
  Ti>   -3.254023   -7.402735  -11.039429
  Ti>   -0.000003    8.883280  -11.039429
  Ti>   -0.000003   -8.883282  -11.039429
  Ti>   -0.000003    1.480546  -14.293449
  Ti>   -0.000003   -1.480548  -14.293449
  Ti>    3.254017   -0.000001  -14.293449
  Ti>   -3.254023   -0.000001  -14.293449
  Ti>   -3.254023    2.961093  -14.293449
  Ti>    3.254017    2.961093  -14.293449
  Ti>    3.254017   -2.961095  -14.293449
  Ti>   -3.254023   -2.961095  -14.293449
  Ti>   -0.000003    4.441639  -14.293449
  Ti>   -0.000003   -4.441641  -14.293449
  Ti>   -3.254023    5.922186  -14.293449
  Ti>    3.254017    5.922186  -14.293449
  Ti>    3.254017   -5.922188  -14.293449
  Ti>   -3.254023   -5.922188  -14.293449
  Ti>   -0.000003    7.402733  -14.293449
  Ti>   -0.000003   -7.402735  -14.293449

----------------------------
CARTESIAN COORDINATES (A.U.)
----------------------------
  NO LB      ZA    FRAG     MASS         X           Y           Z
   0 O     8.0000    0    15.999    0.000000    0.000000    0.000000
   1 Ti   22.0000    0    47.900    0.000010    2.797837   -2.019978
   2 Ti   22.0000    0    47.900    0.000010   -2.797840   -2.019969
   3 O     8.0000    0    15.999    0.000008   -0.000002   -4.815784
   4 O     8.0000    0    15.999   -3.846082    2.797825   -2.100419
   5 O     8.0000    0    15.999    3.846094    2.797825   -2.100415
   6 O     8.0000    0    15.999    3.846093   -2.797828   -2.100417
   7 O     8.0000    0    15.999   -3.846082   -2.797829   -2.100421
   8 O     8.0000    0    15.999   -0.000001    5.595652   -0.000005
   9 O     8.0000    0    15.999   -0.000001   -5.595660   -0.000005
  10 O     8.0000    0    15.999    0.000009    5.595653   -4.815786
  11 O     8.0000    0    15.999    0.000009   -5.595659   -4.815786
  12 Ti   22.0000    0    47.900   -0.000099   -0.000001   -8.339142
  13 O     8.0000    0    15.999   -2.458662    2.797826   -8.534853
  14 O     8.0000    0    15.999    2.458706    2.797826   -8.534863
  15 O     8.0000    0    15.999    2.458706   -2.797831   -8.534863
  16 O     8.0000    0    15.999   -2.458662   -2.797830   -8.534853
  17 O     8.0000    0    15.999   -0.000006   -0.000002  -12.308387
  18 O     8.0000    0    15.999   -0.000006    5.595654  -12.308387
  19 O     8.0000    0    15.999   -0.000006   -5.595658  -12.308387
  20 Ti   22.0000    0    47.900   -0.000006    2.797826  -14.712291
[...]
      dxy     :     0.000204
 20 Tis       :     6.353701  s :     6.353701
      pz      :     4.281729  p :    12.895574
      px      :     4.329352
      py      :     4.284493
      dz2     :     0.424207  d :     2.645916
      dxz     :     0.365459
      dyz     :     0.779760
      dx2y2   :     0.678659
      dxy     :     0.397831
      f0      :     0.016404  f :     0.182830
      f+1     :     0.015466
      f-1     :     0.033428
      f+2     :     0.051038
      f-2     :     0.014359
      f+3     :     0.031369
      f-3     :     0.020765
 21 Tis       :     6.353701  s :     6.353701
      pz      :     4.281729  p :    12.895574
      px      :     4.329352
      py      :     4.284493
      dz2     :     0.424207  d :     2.645916
      dxz     :     0.365459
      dyz     :     0.779760
      dx2y2   :     0.678659
      dxy     :     0.397831
      f0      :     0.016404  f :     0.182830
      f+1     :     0.015466
      f-1     :     0.033428
      f+2     :     0.051038
      f-2     :     0.014359
      f+3     :     0.031369
      f-3     :     0.020765
 22 O s       :     3.748502  s :     3.748502
      pz      :     1.883407  p :     5.601349
      px      :     1.814656
      py      :     1.903286
      dz2     :     0.000697  d :     0.003899
      dxz     :     0.000716
      dyz     :     0.000060
      dx2y2   :     0.001069
      dxy     :     0.001356
 23 O s       :     3.748502  s :     3.748502
      pz      :     1.883407  p :     5.601348
      px      :     1.814655
      py      :     1.903286
      dz2     :     0.000697  d :     0.003899
      dxz     :     0.000716
      dyz     :     0.000060
      dx2y2   :     0.001069
      dxy     :     0.001356
 24 O s       :     3.748502  s :     3.748502
      pz      :     1.883407  p :     5.601348
      px      :     1.814655
      py      :     1.903286
      dz2     :     0.000697  d :     0.003899
      dxz     :     0.000716
      dyz     :     0.000060
      dx2y2   :     0.001069
      dxy     :     0.001356
 25 O s       :     3.748502  s :     3.748502
      pz      :     1.883407  p :     5.601349
      px      :     1.814656
      py      :     1.903286
      dz2     :     0.000697  d :     0.003899
      dxz     :     0.000716
      dyz     :     0.000060
      dx2y2   :     0.001069
      dxy     :     0.001356
 26 O s       :     3.595123  s :     3.595123
      pz      :     1.742756  p :     5.101344
      px      :     1.725508
      py      :     1.633080
      dz2     :     0.000997  d :     0.004085
      dxz     :     0.000188
      dyz     :     0.001893
      dx2y2   :     0.000797
      dxy     :     0.000211
 27 O s       :     3.747250  s :     3.747250
      pz      :     1.857345  p :     5.547481
      px      :     1.857411
      py      :     1.832725
      dz2     :     0.000746  d :     0.003075
      dxz     :     0.000115
      dyz     :     0.001427
      dx2y2   :     0.000599
      dxy     :     0.000188
 28 O s       :     3.747250  s :     3.747250
      pz      :     1.857345  p :     5.547481
      px      :     1.857411
      py      :     1.832725
      dz2     :     0.000746  d :     0.003075
      dxz     :     0.000115
      dyz     :     0.001427
      dx2y2   :     0.000599
      dxy     :     0.000188
 29 Q 
 30 Q 
 31 Q 
 32 Q 
 33 Q 
 34 Q 
 35 Q 
 36 Q 
 37 Q 
 38 Q 
 39 Q 
 40 Q 
 41 Q 
 42 Q 
 43 Q 
 44 Q 
 45 Q 
 46 Q 
 47 Q 
 48 Q 
 49 Q 
 50 Q 
 51 Q 
 52 Q 
 53 Q 
 54 Q 
 55 Q 
 56 Q 
 57 Q 
 58 Q 
 59 Q 
 60 Q 
 61 Q 
 62 Q 
 63 Q 
 64 Q 
 65 Q 
 66 Q 
 67 Q 
 68 Q 
 69 Q 
 70 Q 
 71 Q 
 72 Q 
 73 Q 
 74 Q 
 75 Q 
 76 Q 
 77 Q 
 78 Q 
 79 Q 
 80 Q 
 81 Q 
 82 Q 
 83 Q 
 84 Q 
 85 Q 
 86 Q 
 87 Q 
 88 Q 
 89 Q 
 90 Q 
 91 Q 
 92 Q 
 93 Q 
 94 Q 
 95 Q 
 96 Q 
 97 Q 
 98 Q 
 99 Q 
100 Q 
101 Q 
102 Q 
103 Q 
104 Q 
105 Q 
106 Q 
107 Q 
108 Q 
109 Q 
110 Q 
111 Q 
112 Q 
113 Q 
114 Q 
115 Q 
116 Q 
117 Q 
118 Q 
119 Q 
120 Q 
121 Q 
122 Q 
123 Q 
124 Q 
125 Q 
126 Q 
127 Q 
128 Q 
129 Q 
130 Q 
131 Q 
132 Q 
133 Q 
134 Q 
135 Q 
136 Q 
137 Q 
138 Q 
139 Q 
140 Q 
141 Q 
142 Q 
143 Q 
144 Q 
145 Q 
146 Q 
147 Q 
148 Q 
149 Q 


                      *****************************
                      * MAYER POPULATION ANALYSIS *
                      *****************************

  NA   - Mulliken gross atomic population
  ZA   - Total nuclear charge
  QA   - Mulliken gross atomic charge
  VA   - Mayer's total valence
  BVA  - Mayer's bonded valence
  FA   - Mayer's free valence

  ATOM       NA         ZA         QA         VA         BVA        FA
  0 O      8.4627     8.0000    -0.4627     2.3542     2.3542    -0.0000
  1 Ti    20.9309    22.0000     1.0691     4.8178     4.8178    -0.0000
  2 Ti    20.9309    22.0000     1.0691     4.8178     4.8178    -0.0000
  3 O      8.5924     8.0000    -0.5924     2.2386     2.2386     0.0000
  4 O      9.6988     8.0000    -1.6988     0.5694     0.5694    -0.0000
  5 O      9.6988     8.0000    -1.6988     0.5694     0.5694    -0.0000
  6 O      9.6988     8.0000    -1.6988     0.5694     0.5694    -0.0000
  7 O      9.6988     8.0000    -1.6988     0.5694     0.5694    -0.0000
  8 O      9.0610     8.0000    -1.0610     1.5503     1.5503     0.0000
  9 O      9.0610     8.0000    -1.0610     1.5503     1.5503     0.0000
 10 O      9.6644     8.0000    -1.6644     0.6381     0.6381    -0.0000
 11 O      9.6644     8.0000    -1.6644     0.6381     0.6381     0.0000
 12 Ti    20.9207    22.0000     1.0793     4.8805     4.8805    -0.0000
 13 O      9.5594     8.0000    -1.5594     0.8214     0.8214     0.0000
 14 O      9.5595     8.0000    -1.5595     0.8213     0.8213    -0.0000
 15 O      9.5595     8.0000    -1.5595     0.8213     0.8213     0.0000
 16 O      9.5594     8.0000    -1.5594     0.8214     0.8214    -0.0000
 17 O      8.5726     8.0000    -0.5726     2.2979     2.2979    -0.0000
 18 O      9.5237     8.0000    -1.5237     0.8906     0.8906    -0.0000
 19 O      9.5237     8.0000    -1.5237     0.8906     0.8906    -0.0000
 20 Ti    20.7238    22.0000     1.2762     4.6118     4.6118     0.0000
 21 Ti    20.7238    22.0000     1.2762     4.6118     4.6118    -0.0000
 22 O      9.6081     8.0000    -1.6081     0.7299     0.7299    -0.0000
 23 O      9.6081     8.0000    -1.6081     0.7299     0.7299     0.0000
 24 O      9.6081     8.0000    -1.6081     0.7299     0.7299    -0.0000
 25 O      9.6081     8.0000    -1.6081     0.7299     0.7299    -0.0000
 26 O      9.0824     8.0000    -1.0824     1.5663     1.5663     0.0000
 27 O      9.5481     8.0000    -1.5481     0.8160     0.8160    -0.0000
 28 O      9.5481     8.0000    -1.5481     0.8160     0.8160    -0.0000
 29 Q      0.0000     4.0000     4.0000     0.0000     0.0000     0.0000
 30 Q      0.0000     4.0000     4.0000     0.0000     0.0000     0.0000
 31 Q      0.0000     4.0000     4.0000     0.0000     0.0000     0.0000
 32 Q      0.0000     4.0000     4.0000     0.0000     0.0000     0.0000
 33 Q      0.0000     4.0000     4.0000     0.0000     0.0000     0.0000
 34 Q      0.0000     4.0000     4.0000     0.0000     0.0000     0.0000
 35 Q      0.0000     4.0000     4.0000     0.0000     0.0000     0.0000
 36 Q      0.0000     4.0000     4.0000     0.0000     0.0000     0.0000
 37 Q      0.0000     4.0000     4.0000     0.0000     0.0000     0.0000
 38 Q      0.0000     4.0000     4.0000     0.0000     0.0000     0.0000
 39 Q      0.0000     4.0000     4.0000     0.0000     0.0000     0.0000
 40 Q      0.0000     4.0000     4.0000     0.0000     0.0000     0.0000
 41 Q      0.0000     4.0000     4.0000     0.0000     0.0000     0.0000
 42 Q      0.0000     4.0000     4.0000     0.0000     0.0000     0.0000
 43 Q      0.0000     4.0000     4.0000     0.0000     0.0000     0.0000
 44 Q      0.0000     4.0000     4.0000     0.0000     0.0000     0.0000
 45 Q      0.0000     4.0000     4.0000     0.0000     0.0000     0.0000
 46 Q      0.0000     4.0000     4.0000     0.0000     0.0000     0.0000
 47 Q      0.0000     4.0000     4.0000     0.0000     0.0000     0.0000
 48 Q      0.0000     4.0000     4.0000     0.0000     0.0000     0.0000
 49 Q      0.0000     4.0000     4.0000     0.0000     0.0000     0.0000
 50 Q      0.0000     4.0000     4.0000     0.0000     0.0000     0.0000
 51 Q      0.0000     4.0000     4.0000     0.0000     0.0000     0.0000
 52 Q      0.0000     4.0000     4.0000     0.0000     0.0000     0.0000
 53 Q      0.0000     4.0000     4.0000     0.0000     0.0000     0.0000
 54 Q      0.0000     4.0000     4.0000     0.0000     0.0000     0.0000
 55 Q      0.0000     4.0000     4.0000     0.0000     0.0000     0.0000
 56 Q      0.0000     4.0000     4.0000     0.0000     0.0000     0.0000
 57 Q      0.0000     4.0000     4.0000     0.0000     0.0000     0.0000
 58 Q      0.0000     4.0000     4.0000     0.0000     0.0000     0.0000
 59 Q      0.0000     4.0000     4.0000     0.0000     0.0000     0.0000
 60 Q      0.0000     4.0000     4.0000     0.0000     0.0000     0.0000
 61 Q      0.0000     4.0000     4.0000     0.0000     0.0000     0.0000
 62 Q      0.0000     4.0000     4.0000     0.0000     0.0000     0.0000
 63 Q      0.0000     4.0000     4.0000     0.0000     0.0000     0.0000
 64 Q      0.0000     4.0000     4.0000     0.0000     0.0000     0.0000
 65 Q      0.0000     4.0000     4.0000     0.0000     0.0000     0.0000
 66 Q      0.0000     4.0000     4.0000     0.0000     0.0000     0.0000
 67 Q      0.0000     4.0000     4.0000     0.0000     0.0000     0.0000
 68 Q      0.0000     4.0000     4.0000     0.0000     0.0000     0.0000
 69 Q      0.0000     4.0000     4.0000     0.0000     0.0000     0.0000
 70 Q      0.0000     4.0000     4.0000     0.0000     0.0000     0.0000
 71 Q      0.0000     4.0000     4.0000     0.0000     0.0000     0.0000
 72 Q      0.0000     4.0000     4.0000     0.0000     0.0000     0.0000
 73 Q      0.0000     4.0000     4.0000     0.0000     0.0000     0.0000
 74 Q      0.0000     4.0000     4.0000     0.0000     0.0000     0.0000
 75 Q      0.0000     4.0000     4.0000     0.0000     0.0000     0.0000
 76 Q      0.0000     4.0000     4.0000     0.0000     0.0000     0.0000
 77 Q      0.0000     4.0000     4.0000     0.0000     0.0000     0.0000
 78 Q      0.0000     4.0000     4.0000     0.0000     0.0000     0.0000
 79 Q      0.0000     4.0000     4.0000     0.0000     0.0000     0.0000
 80 Q      0.0000     4.0000     4.0000     0.0000     0.0000     0.0000
 81 Q      0.0000     4.0000     4.0000     0.0000     0.0000     0.0000
 82 Q      0.0000     4.0000     4.0000     0.0000     0.0000     0.0000
 83 Q      0.0000     4.0000     4.0000     0.0000     0.0000     0.0000
 84 Q      0.0000     4.0000     4.0000     0.0000     0.0000     0.0000
 85 Q      0.0000     4.0000     4.0000     0.0000     0.0000     0.0000
 86 Q      0.0000     4.0000     4.0000     0.0000     0.0000     0.0000
 87 Q      0.0000     4.0000     4.0000     0.0000     0.0000     0.0000
 88 Q      0.0000     4.0000     4.0000     0.0000     0.0000     0.0000
 89 Q      0.0000     4.0000     4.0000     0.0000     0.0000     0.0000
 90 Q      0.0000     4.0000     4.0000     0.0000     0.0000     0.0000
 91 Q      0.0000     4.0000     4.0000     0.0000     0.0000     0.0000
 92 Q      0.0000     4.0000     4.0000     0.0000     0.0000     0.0000
 93 Q      0.0000     4.0000     4.0000     0.0000     0.0000     0.0000
 94 Q      0.0000     4.0000     4.0000     0.0000     0.0000     0.0000
 95 Q      0.0000     4.0000     4.0000     0.0000     0.0000     0.0000
 96 Q      0.0000     4.0000     4.0000     0.0000     0.0000     0.0000
 97 Q      0.0000     4.0000     4.0000     0.0000     0.0000     0.0000
 98 Q      0.0000     4.0000     4.0000     0.0000     0.0000     0.0000
 99 Q      0.0000     4.0000     4.0000     0.0000     0.0000     0.0000
100 Q      0.0000     4.0000     4.0000     0.0000     0.0000     0.0000
101 Q      0.0000     4.0000     4.0000     0.0000     0.0000     0.0000
102 Q      0.0000     4.0000     4.0000     0.0000     0.0000     0.0000
103 Q      0.0000     4.0000     4.0000     0.0000     0.0000     0.0000
104 Q      0.0000     4.0000     4.0000     0.0000     0.0000     0.0000
105 Q      0.0000     4.0000     4.0000     0.0000     0.0000     0.0000
106 Q      0.0000     4.0000     4.0000     0.0000     0.0000     0.0000
107 Q      0.0000     4.0000     4.0000     0.0000     0.0000     0.0000
108 Q      0.0000     4.0000     4.0000     0.0000     0.0000     0.0000
109 Q      0.0000     4.0000     4.0000     0.0000     0.0000     0.0000
110 Q      0.0000     4.0000     4.0000     0.0000     0.0000     0.0000
111 Q      0.0000     4.0000     4.0000     0.0000     0.0000     0.0000
112 Q      0.0000     4.0000     4.0000     0.0000     0.0000     0.0000
113 Q      0.0000     4.0000     4.0000     0.0000     0.0000     0.0000
114 Q      0.0000     4.0000     4.0000     0.0000     0.0000     0.0000
115 Q      0.0000     4.0000     4.0000     0.0000     0.0000     0.0000
116 Q      0.0000     4.0000     4.0000     0.0000     0.0000     0.0000
117 Q      0.0000     4.0000     4.0000     0.0000     0.0000     0.0000
118 Q      0.0000     4.0000     4.0000     0.0000     0.0000     0.0000
119 Q      0.0000     4.0000     4.0000     0.0000     0.0000     0.0000
120 Q      0.0000     4.0000     4.0000     0.0000     0.0000     0.0000
121 Q      0.0000     4.0000     4.0000     0.0000     0.0000     0.0000
122 Q      0.0000     4.0000     4.0000     0.0000     0.0000     0.0000
123 Q      0.0000     4.0000     4.0000     0.0000     0.0000     0.0000
124 Q      0.0000     4.0000     4.0000     0.0000     0.0000     0.0000
125 Q      0.0000     4.0000     4.0000     0.0000     0.0000     0.0000
126 Q      0.0000     4.0000     4.0000     0.0000     0.0000     0.0000
127 Q      0.0000     4.0000     4.0000     0.0000     0.0000     0.0000
128 Q      0.0000     4.0000     4.0000     0.0000     0.0000     0.0000
129 Q      0.0000     4.0000     4.0000     0.0000     0.0000     0.0000
130 Q      0.0000     4.0000     4.0000     0.0000     0.0000     0.0000
131 Q      0.0000     4.0000     4.0000     0.0000     0.0000     0.0000
132 Q      0.0000     4.0000     4.0000     0.0000     0.0000     0.0000
133 Q      0.0000     4.0000     4.0000     0.0000     0.0000     0.0000
134 Q      0.0000     4.0000     4.0000     0.0000     0.0000     0.0000
135 Q      0.0000     4.0000     4.0000     0.0000     0.0000     0.0000
136 Q      0.0000     4.0000     4.0000     0.0000     0.0000     0.0000
137 Q      0.0000     4.0000     4.0000     0.0000     0.0000     0.0000
138 Q      0.0000     4.0000     4.0000     0.0000     0.0000     0.0000
139 Q      0.0000     4.0000     4.0000     0.0000     0.0000     0.0000
140 Q      0.0000     4.0000     4.0000     0.0000     0.0000     0.0000
141 Q      0.0000     4.0000     4.0000     0.0000     0.0000     0.0000
142 Q      0.0000     4.0000     4.0000     0.0000     0.0000     0.0000
143 Q      0.0000     4.0000     4.0000     0.0000     0.0000     0.0000
144 Q      0.0000     4.0000     4.0000     0.0000     0.0000     0.0000
145 Q      0.0000     4.0000     4.0000     0.0000     0.0000     0.0000
146 Q      0.0000     4.0000     4.0000     0.0000     0.0000     0.0000
147 Q      0.0000     4.0000     4.0000     0.0000     0.0000     0.0000
148 Q      0.0000     4.0000     4.0000     0.0000     0.0000     0.0000
149 Q      0.0000     4.0000     4.0000     0.0000     0.0000     0.0000

  Mayer bond orders larger than 0.100000
B(  0-O ,  1-Ti) :   1.1023 B(  0-O ,  2-Ti) :   1.1023 B(  1-Ti,  2-Ti) :   0.1261 
B(  1-Ti,  3-O ) :   0.4855 B(  1-Ti,  4-O ) :   0.4765 B(  1-Ti,  5-O ) :   0.4765 
B(  1-Ti,  8-O ) :   1.4510 B(  1-Ti, 10-O ) :   0.5371 B(  2-Ti,  3-O ) :   0.4855 
B(  2-Ti,  6-O ) :   0.4765 B(  2-Ti,  7-O ) :   0.4765 B(  2-Ti,  9-O ) :   1.4510 
B(  2-Ti, 11-O ) :   0.5371 B(  3-O , 12-Ti) :   1.1257 B( 12-Ti, 13-O ) :   0.7022 
B( 12-Ti, 14-O ) :   0.7021 B( 12-Ti, 15-O ) :   0.7021 B( 12-Ti, 16-O ) :   0.7022 
B( 12-Ti, 17-O ) :   0.5092 B( 17-O , 20-Ti) :   0.8196 B( 17-O , 21-Ti) :   0.8196 
B( 18-O , 20-Ti) :   0.7778 B( 19-O , 21-Ti) :   0.7778 B( 20-Ti, 22-O ) :   0.6322 
B( 20-Ti, 23-O ) :   0.6322 B( 20-Ti, 26-O ) :   0.7296 B( 20-Ti, 27-O ) :   0.7530 
B( 21-Ti, 24-O ) :   0.6322 B( 21-Ti, 25-O ) :   0.6322 B( 21-Ti, 26-O ) :   0.7296 
B( 21-Ti, 28-O ) :   0.7530 

-------
TIMINGS
-------

Total SCF time: 0 days 0 hours 0 min 30 sec 

Total time                  ....      30.462 sec
Sum of individual times     ....      28.867 sec  ( 94.8%)

Fock matrix formation       ....      20.907 sec  ( 68.6%)
  XC integration            ....       7.365 sec  ( 35.2% of F)
    Basis function eval.    ....       0.746 sec  ( 10.1% of XC)
    Density eval.           ....       1.055 sec  ( 14.3% of XC)
    XC-Functional eval.     ....       0.226 sec  (  3.1% of XC)
    XC-Potential eval.      ....       0.565 sec  (  7.7% of XC)
Diagonalization             ....       3.760 sec  ( 12.3%)
Density matrix formation    ....       0.061 sec  (  0.2%)
Population analysis         ....       0.220 sec  (  0.7%)
Initial guess               ....       0.189 sec  (  0.6%)
Orbital Transformation      ....       0.000 sec  (  0.0%)
Orbital Orthonormalization  ....       0.000 sec  (  0.0%)
DIIS solution               ....       2.661 sec  (  8.7%)
Grid generation             ....       1.069 sec  (  3.5%)

Maximum memory used throughout the entire SCF-calculation: 103.4 MB

-------------------------   --------------------
FINAL SINGLE POINT ENERGY    -12855.346519724577
-------------------------   --------------------


                            ***************************************
                            *     ORCA property calculations      *
                            ***************************************

                                    ---------------------
                                    Active property flags
                                    ---------------------
   (+) Dipole Moment


------------------------------------------------------------------------------
                       ORCA ELECTRIC PROPERTIES CALCULATION
------------------------------------------------------------------------------

Dipole Moment Calculation                       ... on
Quadrupole Moment Calculation                   ... off
Polarizability Calculation                      ... off
GBWName                                         ... orca.gbw
Electron density                                ... orca.scfp
The origin for moment calculation is the CENTER OF MASS  = (-0.000005, -0.000002 -8.449361)

-------------
DIPOLE MOMENT
-------------
                                X             Y             Z
Electronic contribution:     -0.00075       0.00002      11.00498
Nuclear contribution   :     -0.01063       0.00010   -2455.22334
                        -----------------------------------------
Total Dipole Moment    :     -0.01138       0.00011   -2444.21835
                        -----------------------------------------
Magnitude (a.u.)       :   2444.21835
Magnitude (Debye)      :   6212.70933



--------------------
Rotational spectrum 
--------------------
 
Rotational constants in cm-1:     0.006514     0.002570     0.002135 
Rotational constants in MHz :   195.287145    77.059386    63.999736 

 Dipole components along the rotational axes: 
x,y,z [a.u.] : -2444.218355     0.000078    -0.009033 
x,y,z [Debye]: -6212.709326     0.000199    -0.022960 

 

Timings for individual modules:

Sum of individual times         ...       59.897 sec (=   0.998 min)
GTO integral calculation        ...       27.996 sec (=   0.467 min)  46.7 %
SCF iterations                  ...       31.901 sec (=   0.532 min)  53.3 %
                             ****ORCA TERMINATED NORMALLY****
TOTAL RUN TIME: 0 days 0 hours 1 minutes 6 seconds 767 msec
