
                                 *****************
                                 * O   R   C   A *
                                 *****************

                                            #,                                       
                                            ###                                      
                                            ####                                     
                                            #####                                    
                                            ######                                   
                                           ########,                                 
                                     ,,################,,,,,                         
                               ,,#################################,,                 
                          ,,##########################################,,             
                       ,#########################################, ''#####,          
                    ,#############################################,,   '####,        
                  ,##################################################,,,,####,       
                ,###########''''           ''''###############################       
              ,#####''   ,,,,##########,,,,          '''####'''          '####       
            ,##' ,,,,###########################,,,                        '##       
           ' ,,###''''                  '''############,,,                           
         ,,##''                                '''############,,,,        ,,,,,,###''
      ,#''                                            '''#######################'''  
     '                                                          ''''####''''         
             ,#######,   #######,   ,#######,      ##                                
            ,#'     '#,  ##    ##  ,#'     '#,    #''#        ######   ,####,        
            ##       ##  ##   ,#'  ##            #'  '#       #        #'  '#        
            ##       ##  #######   ##           ,######,      #####,   #    #        
            '#,     ,#'  ##    ##  '#,     ,#' ,#      #,         ##   #,  ,#        
             '#######'   ##     ##  '#######'  #'      '#     #####' # '####'        



                  #######################################################
                  #                        -***-                        #
                  #          Department of theory and spectroscopy      #
                  #    Directorship and core code : Frank Neese         #
                  #        Max Planck Institute fuer Kohlenforschung    #
                  #                Kaiser Wilhelm Platz 1               #
                  #                 D-45470 Muelheim/Ruhr               #
                  #                      Germany                        #
                  #                                                     #
                  #                  All rights reserved                #
                  #                        -***-                        #
                  #######################################################


                         Program Version 5.0.1 -  RELEASE  -


 With contributions from (in alphabetic order):
   Daniel Aravena         : Magnetic Suceptibility
   Michael Atanasov       : Ab Initio Ligand Field Theory (pilot matlab implementation)
   Alexander A. Auer      : GIAO ZORA, VPT2 properties, NMR spectrum
   Ute Becker             : Parallelization
   Giovanni Bistoni       : ED, misc. LED, open-shell LED, HFLD
   Martin Brehm           : Molecular dynamics
   Dmytro Bykov           : SCF Hessian
   Vijay G. Chilkuri      : MRCI spin determinant printing, contributions to CSF-ICE
   Dipayan Datta          : RHF DLPNO-CCSD density
   Achintya Kumar Dutta   : EOM-CC, STEOM-CC
   Dmitry Ganyushin       : Spin-Orbit,Spin-Spin,Magnetic field MRCI
   Miquel Garcia          : C-PCM and meta-GGA Hessian, CC/C-PCM, Gaussian charge scheme
   Yang Guo               : DLPNO-NEVPT2, F12-NEVPT2, CIM, IAO-localization
   Andreas Hansen         : Spin unrestricted coupled pair/coupled cluster methods
   Benjamin Helmich-Paris : MC-RPA, TRAH-SCF, COSX integrals
   Lee Huntington         : MR-EOM, pCC
   Robert Izsak           : Overlap fitted RIJCOSX, COSX-SCS-MP3, EOM
   Marcus Kettner         : VPT2
   Christian Kollmar      : KDIIS, OOCD, Brueckner-CCSD(T), CCSD density, CASPT2, CASPT2-K
   Simone Kossmann        : Meta GGA functionals, TD-DFT gradient, OOMP2, MP2 Hessian
   Martin Krupicka        : Initial AUTO-CI
   Lucas Lang             : DCDCAS
   Marvin Lechner         : AUTO-CI (C++ implementation), FIC-MRCC
   Dagmar Lenk            : GEPOL surface, SMD
   Dimitrios Liakos       : Extrapolation schemes; Compound Job, initial MDCI parallelization
   Dimitrios Manganas     : Further ROCIS development; embedding schemes
   Dimitrios Pantazis     : SARC Basis sets
   Anastasios Papadopoulos: AUTO-CI, single reference methods and gradients
   Taras Petrenko         : DFT Hessian,TD-DFT gradient, ASA, ECA, R-Raman, ABS, FL, XAS/XES, NRVS
   Peter Pinski           : DLPNO-MP2, DLPNO-MP2 Gradient
   Christoph Reimann      : Effective Core Potentials
   Marius Retegan         : Local ZFS, SOC
   Christoph Riplinger    : Optimizer, TS searches, QM/MM, DLPNO-CCSD(T), (RO)-DLPNO pert. Triples
   Tobias Risthaus        : Range-separated hybrids, TD-DFT gradient, RPA, STAB
   Michael Roemelt        : Original ROCIS implementation
   Masaaki Saitow         : Open-shell DLPNO-CCSD energy and density
   Barbara Sandhoefer     : DKH picture change effects
   Avijit Sen             : IP-ROCIS
   Kantharuban Sivalingam : CASSCF convergence, NEVPT2, FIC-MRCI
   Bernardo de Souza      : ESD, SOC TD-DFT
   Georgi Stoychev        : AutoAux, RI-MP2 NMR, DLPNO-MP2 response
   Willem Van den Heuvel  : Paramagnetic NMR
   Boris Wezisla          : Elementary symmetry handling
   Frank Wennmohs         : Technical directorship


 We gratefully acknowledge several colleagues who have allowed us to
 interface, adapt or use parts of their codes:
   Stefan Grimme, W. Hujo, H. Kruse, P. Pracht,  : VdW corrections, initial TS optimization,
                  C. Bannwarth, S. Ehlert          DFT functionals, gCP, sTDA/sTD-DF
   Ed Valeev, F. Pavosevic, A. Kumar             : LibInt (2-el integral package), F12 methods
   Garnet Chan, S. Sharma, J. Yang, R. Olivares  : DMRG
   Ulf Ekstrom                                   : XCFun DFT Library
   Mihaly Kallay                                 : mrcc  (arbitrary order and MRCC methods)
   Jiri Pittner, Ondrej Demel                    : Mk-CCSD
   Frank Weinhold                                : gennbo (NPA and NBO analysis)
   Christopher J. Cramer and Donald G. Truhlar   : smd solvation model
   Lars Goerigk                                  : TD-DFT with DH, B97 family of functionals
   V. Asgeirsson, H. Jonsson                     : NEB implementation
   FAccTs GmbH                                   : IRC, NEB, NEB-TS, DLPNO-Multilevel, CI-OPT
                                                   MM, QMMM, 2- and 3-layer-ONIOM, Crystal-QMMM,
                                                   LR-CPCM, SF, NACMEs, symmetry and pop. for TD-DFT,
                                                   nearIR, NL-DFT gradient (VV10), updates on ESD,
                                                   ML-optimized integration grids
   S Lehtola, MJT Oliveira, MAL Marques          : LibXC Library
   Liviu Ungur et al                             : ANISO software


 Your calculation uses the libint2 library for the computation of 2-el integrals
 For citations please refer to: http://libint.valeyev.net

 Your ORCA version has been built with support for libXC version: 5.1.0
 For citations please refer to: https://tddft.org/programs/libxc/

 This ORCA versions uses:
   CBLAS   interface :  Fast vector & matrix operations
   LAPACKE interface :  Fast linear algebra routines
   SCALAPACK package :  Parallel linear algebra routines
   Shared memory     :  Shared parallel matrices
   BLAS/LAPACK       :  OpenBLAS 0.3.15  USE64BITINT DYNAMIC_ARCH NO_AFFINITY Prescott SINGLE_THREADED
        Core in use  :  Prescott
   Copyright (c) 2011-2014, The OpenBLAS Project


SCAN-COORDS
================================================================================

----- Orbital basis set information -----
Your calculation utilizes the basis: def2-SVP
   F. Weigend and R. Ahlrichs, Phys. Chem. Chem. Phys. 7, 3297 (2005).

----- AuxJ basis set information -----
Your calculation utilizes the auxiliary basis: def2/J
   F. Weigend, Phys. Chem. Chem. Phys. 8, 1057 (2006).

================================================================================
                                        WARNINGS
                       Please study these warnings very carefully!
================================================================================

WARNING: The globally-selected AuxJ basis set is optimized for use with ECPs
         Make sure a suitable alternative is explicitly given all heavy elements (Z>36)

INFO   : the flag for use of the SHARK integral package has been found!

================================================================================
                                       INPUT FILE
================================================================================
NAME = orca.inp
|  1> ! TightSCF SlowConv DIIS
|  2> %maxcore 18000
|  3> %pal
|  4>   nprocs 24
|  5> end
|  6> %pointcharges "orca.bq"
|  7> %method
|  8>   Method DFT
|  9>   Functional PBE
| 10>   RI on
| 11>   RunTyp Energy
| 12> end
| 13> %basis
| 14>   Basis "def2-SVP"
| 15>   Aux "def2/J"
| 16> end
| 17> %scf
| 18>   HFTyp rks
| 19>   Guess Hueckel
| 20>   AutoStart True
| 21>   SCFMode Direct
| 22>   MaxIter 1000
| 23>   sthresh 1e-6
| 24>   AutoTRAHIter 80
| 25> end
| 26> %coords
| 27>   CTyp xyz
| 28>   Mult 1
| 29>   Units angs
| 30>   Charge -66
| 31>   coords
| 32> O:                      0.00000000000    0.00000000000    0.00000000000
| 33> Ti                      0.00000536997    1.48055149700   -1.06892606631
| 34> Ti                      0.00000552101   -1.48055312386   -1.06892138720
| 35> O                       0.00000442396   -0.00000111986   -2.54840301833
| 36> O                      -2.03525914147    1.48054518365   -1.11149385695
| 37> O                       2.03526534753    1.48054527935   -1.11149163807
| 38> O                       2.03526471018   -1.48054700097   -1.11149295951
| 39> O                      -2.03525907462   -1.48054722666   -1.11149503385
| 40> O                      -0.00000037752    2.96109155033   -0.00000271770
| 41> O                      -0.00000037752   -2.96109552160   -0.00000271770
| 42> Ti                      3.25402319191   -0.00000112036   -1.42716202606
| 43> Ti                     -3.25401610555   -0.00000112036   -1.42716202606
| 44> O                       0.00000449994    2.96109199200   -2.54840438198
| 45> O                       0.00000449994   -2.96109507993   -2.54840438198
| 46> Ti                     -0.00005220374   -0.00000071014   -4.41288396045
| 47> Ti                      0.00000552101    4.44163394806   -1.06892138720
| 48> Ti                      0.00000536997   -4.44163557493   -1.06892606631
| 49> O                       3.25402603430   -0.00000063665   -3.23990501486
| 50> O                      -3.25401326317   -0.00000063665   -3.23990501486
| 51> Ti                     -3.25401668289    2.96109302555   -1.42716235830
| 52> Ti                      3.25402261457    2.96109302555   -1.42716235830
| 53> Ti                      3.25402261457   -2.96109404638   -1.42716235830
| 54> Ti                     -3.25401668289   -2.96109404638   -1.42716235830
| 55> O                      -4.47277394994    1.48054527935   -1.11149163807
| 56> O                       4.47278015600    1.48054518365   -1.11149385695
| 57> O                       4.47278022285   -1.48054722666   -1.11149503385
| 58> O                      -4.47277458729   -1.48054700097   -1.11149295951
| 59> O                      -1.30106804451    1.48054600613   -4.51644966155
| 60> O                       1.30109103436    1.48054591013   -4.51645509582
| 61> O                       1.30109095673   -1.48054821213   -4.51645492343
| 62> O                      -1.30106798933   -1.48054805070   -4.51644946585
| 63> O                      -2.03525907462    4.44163984526   -1.11149503385
| 64> O                       2.03526471018    4.44164007096   -1.11149295951
| 65> O                       2.03526534753   -4.44164179257   -1.11149163807
| 66> O                      -2.03525914147   -4.44164188827   -1.11149385695
| 67> Ti                     -0.00005206359    2.96109301637   -4.41288206312
| 68> Ti                     -0.00005206359   -2.96109405556   -4.41288206312
| 69> O                      -3.25401306857    2.96109209923   -3.23990596489
| 70> O                       3.25402622890    2.96109209923   -3.23990596489
| 71> O                       3.25402622890   -2.96109497270   -3.23990596489
| 72> O                      -3.25401306857   -2.96109497270   -3.23990596489
| 73> Ti                      3.25395215162    1.48054533538   -4.59991327640
| 74> Ti                      3.25395195581   -1.48054722422   -4.59991284715
| 75> Ti                     -3.25408714585    1.48054533538   -4.59991327640
| 76> Ti                     -3.25408734165   -1.48054722422   -4.59991284715
| 77> O                       0.00000000000    5.92218707193    0.00000000000
| 78> O                       0.00000000000   -5.92218707193    0.00000000000
| 79> O                      -4.47277458729    4.44164007096   -1.11149295951
| 80> O                       4.47278022285    4.44163984526   -1.11149503385
| 81> O                       4.47278015600   -4.44164188827   -1.11149385695
| 82> O                      -4.47277394994   -4.44164179257   -1.11149163807
| 83> O                       0.00000442396    5.92218595207   -2.54840301833
| 84> O                       0.00000442396   -5.92218819178   -2.54840301833
| 85> O                      -1.30106798933    4.44163902122   -4.51644946585
| 86> O                       1.30109095673    4.44163885980   -4.51645492343
| 87> O                       1.30109103436   -4.44164116180   -4.51645509582
| 88> O                      -1.30106804451   -4.44164106579   -4.51644966155
| 89> O                      -6.50803929747    0.00000000000    0.00000000000
| 90> O                       6.50803929747    0.00000000000    0.00000000000
| 91> O                      -0.00000306899   -0.00000100232   -6.51331789952
| 92> O                       3.25402501297   -0.00000107099   -5.78839374873
| 93> O                      -3.25401428450   -0.00000107099   -5.78839374873
| 94> Ti                     -6.50803392749    1.48055149700   -1.06892606631
| 95> Ti                      6.50804466744    1.48055149700   -1.06892606631
| 96> Ti                      6.50804481848   -1.48055312386   -1.06892138720
| 97> Ti                     -6.50803377645   -1.48055312386   -1.06892138720
| 98> Ti                     -3.25401610555    5.92218595157   -1.42716202606
| 99> Ti                      3.25402319191    5.92218595157   -1.42716202606
|100> Ti                      3.25402319191   -5.92218819228   -1.42716202606
|101> Ti                     -3.25401610555   -5.92218819228   -1.42716202606
|102> O                       6.50804372142   -0.00000111986   -2.54840301833
|103> O                      -6.50803487351   -0.00000111986   -2.54840301833
|104> O                      -5.20694826311    1.48054591013   -4.51645509582
|105> O                       5.20697125296    1.48054600613   -4.51644966155
|106> O                       5.20697130813   -1.48054805070   -4.51644946585
|107> O                      -5.20694834074   -1.48054821213   -4.51645492343
|108> O                      -6.50803967498    2.96109155033   -0.00000271770
|109> O                       6.50803891995    2.96109155033   -0.00000271770
|110> O                       6.50803891995   -2.96109552160   -0.00000271770
|111> O                      -6.50803967498   -2.96109552160   -0.00000271770
|112> O                      -0.00000306899    2.96109253364   -6.51331789952
|113> O                      -0.00000306899   -2.96109453828   -6.51331789952
|114> Ti                      3.25395195581    4.44163984770   -4.59991284715
|115> Ti                      3.25395215162   -4.44164173655   -4.59991327640
|116> Ti                     -3.25408734165    4.44163984770   -4.59991284715
|117> Ti                     -3.25408714585   -4.44164173655   -4.59991327640
|118> O                      -3.25401413420    2.96109275570   -5.78839415273
|119> O                       3.25402516327    2.96109275570   -5.78839415273
|120> O                       3.25402516327   -2.96109431623   -5.78839415273
|121> O                      -3.25401413420   -2.96109431623   -5.78839415273
|122> Ti                     -0.00005220374    5.92218636178   -4.41288396045
|123> Ti                     -0.00005220374   -5.92218778207   -4.41288396045
|124> O                      -3.25401326317    5.92218643528   -3.23990501486
|125> O                       3.25402603430    5.92218643528   -3.23990501486
|126> O                       3.25402603430   -5.92218770857   -3.23990501486
|127> O                      -3.25401326317   -5.92218770857   -3.23990501486
|128> O                      -6.50803479753    2.96109199200   -2.54840438198
|129> O                       6.50804379741    2.96109199200   -2.54840438198
|130> O                       6.50804379741   -2.96109507993   -2.54840438198
|131> O                      -6.50803479753   -2.96109507993   -2.54840438198
|132> O                      -2.03525914147    7.40273225558   -1.11149385695
|133> O                       2.03526534753    7.40273235128   -1.11149163807
|134> O                       2.03526471018   -7.40273407290   -1.11149295951
|135> O                      -2.03525907462   -7.40273429859   -1.11149503385
|136> O                      -5.20694834074    4.44163885980   -4.51645492343
|137> O                       5.20697130813    4.44163902122   -4.51644946585
|138> O                       5.20697125296   -4.44164106579   -4.51644966155
|139> O                      -5.20694826311   -4.44164116180   -4.51645509582
|140> O                      -4.47277394994    7.40273235128   -1.11149163807
|141> O                       4.47278015600    7.40273225558   -1.11149385695
|142> O                       4.47278022285   -7.40273429859   -1.11149503385
|143> O                      -4.47277458729   -7.40273407290   -1.11149295951
|144> O                      -8.54329843894    1.48054518365   -1.11149385695
|145> O                       8.54330464500    1.48054527935   -1.11149163807
|146> O                       8.54330400764   -1.48054700097   -1.11149295951
|147> O                      -8.54329837208   -1.48054722666   -1.11149503385
|148> O                      -1.30106804451    7.40273307806   -4.51644966155
|149> O                       1.30109103436    7.40273298205   -4.51645509582
|150> O                       1.30109095673   -7.40273528405   -4.51645492343
|151> O                      -1.30106798933   -7.40273512263   -4.51644946585
|152> O                      -0.00000306899    5.92218606960   -6.51331789952
|153> O                      -0.00000306899   -5.92218807425   -6.51331789952
|154> O                      -3.25401428450    5.92218600093   -5.78839374873
|155> O                       3.25402501297    5.92218600093   -5.78839374873
|156> O                       3.25402501297   -5.92218814292   -5.78839374873
|157> O                      -3.25401428450   -5.92218814292   -5.78839374873
|158> Ti>    4.00000000000    0.00000536997    7.40273856892   -1.06892606631
|159> NewECP
|160> N_core 0
|161>   lmax f
|162>   s 2
|163>    1      0.860000       9.191690  2
|164>    2      0.172000       0.008301  2
|165>   p 2
|166>    1      0.860000      17.997720  2
|167>    2      0.172000      -0.032600  2
|168>   d 2
|169>    1      1.600000      -9.504310  2
|170>    2      0.320000      -0.151370  2
|171>   f 1
|172>    1      1.000000000    0.000000000 2
|173> end
|174> Ti>    4.00000000000    0.00000552101   -7.40274019579   -1.06892138720
|175> NewECP
|176> N_core 0
|177>   lmax f
|178>   s 2
|179>    1      0.860000       9.191690  2
|180>    2      0.172000       0.008301  2
|181>   p 2
|182>    1      0.860000      17.997720  2
|183>    2      0.172000      -0.032600  2
|184>   d 2
|185>    1      1.600000      -9.504310  2
|186>    2      0.320000      -0.151370  2
|187>   f 1
|188>    1      1.000000000    0.000000000 2
|189> end
|190> Ti>    4.00000000000    6.50798709372   -0.00000071014   -4.41288396045
|191> NewECP
|192> N_core 0
|193>   lmax f
|194>   s 2
|195>    1      0.860000       9.191690  2
|196>    2      0.172000       0.008301  2
|197>   p 2
|198>    1      0.860000      17.997720  2
|199>    2      0.172000      -0.032600  2
|200>   d 2
|201>    1      1.600000      -9.504310  2
|202>    2      0.320000      -0.151370  2
|203>   f 1
|204>    1      1.000000000    0.000000000 2
|205> end
|206> Ti>    4.00000000000   -6.50809150121   -0.00000071014   -4.41288396045
|207> NewECP
|208> N_core 0
|209>   lmax f
|210>   s 2
|211>    1      0.860000       9.191690  2
|212>    2      0.172000       0.008301  2
|213>   p 2
|214>    1      0.860000      17.997720  2
|215>    2      0.172000      -0.032600  2
|216>   d 2
|217>    1      1.600000      -9.504310  2
|218>    2      0.320000      -0.151370  2
|219>   f 1
|220>    1      1.000000000    0.000000000 2
|221> end
|222> Ti>    4.00000000000   -0.00000306899    1.48054576566   -7.78540932970
|223> NewECP
|224> N_core 0
|225>   lmax f
|226>   s 2
|227>    1      0.860000       9.191690  2
|228>    2      0.172000       0.008301  2
|229>   p 2
|230>    1      0.860000      17.997720  2
|231>    2      0.172000      -0.032600  2
|232>   d 2
|233>    1      1.600000      -9.504310  2
|234>    2      0.320000      -0.151370  2
|235>   f 1
|236>    1      1.000000000    0.000000000 2
|237> end
|238> Ti>    4.00000000000   -0.00000306899   -1.48054777030   -7.78540932970
|239> NewECP
|240> N_core 0
|241>   lmax f
|242>   s 2
|243>    1      0.860000       9.191690  2
|244>    2      0.172000       0.008301  2
|245>   p 2
|246>    1      0.860000      17.997720  2
|247>    2      0.172000      -0.032600  2
|248>   d 2
|249>    1      1.600000      -9.504310  2
|250>    2      0.320000      -0.151370  2
|251>   f 1
|252>    1      1.000000000    0.000000000 2
|253> end
|254> Ti>    4.00000000000   -6.50803377645    4.44163394806   -1.06892138720
|255> NewECP
|256> N_core 0
|257>   lmax f
|258>   s 2
|259>    1      0.860000       9.191690  2
|260>    2      0.172000       0.008301  2
|261>   p 2
|262>    1      0.860000      17.997720  2
|263>    2      0.172000      -0.032600  2
|264>   d 2
|265>    1      1.600000      -9.504310  2
|266>    2      0.320000      -0.151370  2
|267>   f 1
|268>    1      1.000000000    0.000000000 2
|269> end
|270> Ti>    4.00000000000    6.50804481848    4.44163394806   -1.06892138720
|271> NewECP
|272> N_core 0
|273>   lmax f
|274>   s 2
|275>    1      0.860000       9.191690  2
|276>    2      0.172000       0.008301  2
|277>   p 2
|278>    1      0.860000      17.997720  2
|279>    2      0.172000      -0.032600  2
|280>   d 2
|281>    1      1.600000      -9.504310  2
|282>    2      0.320000      -0.151370  2
|283>   f 1
|284>    1      1.000000000    0.000000000 2
|285> end
|286> Ti>    4.00000000000    6.50804466744   -4.44163557493   -1.06892606631
|287> NewECP
|288> N_core 0
|289>   lmax f
|290>   s 2
|291>    1      0.860000       9.191690  2
|292>    2      0.172000       0.008301  2
|293>   p 2
|294>    1      0.860000      17.997720  2
|295>    2      0.172000      -0.032600  2
|296>   d 2
|297>    1      1.600000      -9.504310  2
|298>    2      0.320000      -0.151370  2
|299>   f 1
|300>    1      1.000000000    0.000000000 2
|301> end
|302> Ti>    4.00000000000   -6.50803392749   -4.44163557493   -1.06892606631
|303> NewECP
|304> N_core 0
|305>   lmax f
|306>   s 2
|307>    1      0.860000       9.191690  2
|308>    2      0.172000       0.008301  2
|309>   p 2
|310>    1      0.860000      17.997720  2
|311>    2      0.172000      -0.032600  2
|312>   d 2
|313>    1      1.600000      -9.504310  2
|314>    2      0.320000      -0.151370  2
|315>   f 1
|316>    1      1.000000000    0.000000000 2
|317> end
|318> Ti>    4.00000000000    6.50798723387    2.96109301637   -4.41288206312
|319> NewECP
|320> N_core 0
|321>   lmax f
|322>   s 2
|323>    1      0.860000       9.191690  2
|324>    2      0.172000       0.008301  2
|325>   p 2
|326>    1      0.860000      17.997720  2
|327>    2      0.172000      -0.032600  2
|328>   d 2
|329>    1      1.600000      -9.504310  2
|330>    2      0.320000      -0.151370  2
|331>   f 1
|332>    1      1.000000000    0.000000000 2
|333> end
|334> Ti>    4.00000000000    6.50798723387   -2.96109405556   -4.41288206312
|335> NewECP
|336> N_core 0
|337>   lmax f
|338>   s 2
|339>    1      0.860000       9.191690  2
|340>    2      0.172000       0.008301  2
|341>   p 2
|342>    1      0.860000      17.997720  2
|343>    2      0.172000      -0.032600  2
|344>   d 2
|345>    1      1.600000      -9.504310  2
|346>    2      0.320000      -0.151370  2
|347>   f 1
|348>    1      1.000000000    0.000000000 2
|349> end
|350> Ti>    4.00000000000   -6.50809136106    2.96109301637   -4.41288206312
|351> NewECP
|352> N_core 0
|353>   lmax f
|354>   s 2
|355>    1      0.860000       9.191690  2
|356>    2      0.172000       0.008301  2
|357>   p 2
|358>    1      0.860000      17.997720  2
|359>    2      0.172000      -0.032600  2
|360>   d 2
|361>    1      1.600000      -9.504310  2
|362>    2      0.320000      -0.151370  2
|363>   f 1
|364>    1      1.000000000    0.000000000 2
|365> end
|366> Ti>    4.00000000000   -6.50809136106   -2.96109405556   -4.41288206312
|367> NewECP
|368> N_core 0
|369>   lmax f
|370>   s 2
|371>    1      0.860000       9.191690  2
|372>    2      0.172000       0.008301  2
|373>   p 2
|374>    1      0.860000      17.997720  2
|375>    2      0.172000      -0.032600  2
|376>   d 2
|377>    1      1.600000      -9.504310  2
|378>    2      0.320000      -0.151370  2
|379>   f 1
|380>    1      1.000000000    0.000000000 2
|381> end
|382> Ti>    4.00000000000    3.25401657974   -0.00000100232   -7.78540932970
|383> NewECP
|384> N_core 0
|385>   lmax f
|386>   s 2
|387>    1      0.860000       9.191690  2
|388>    2      0.172000       0.008301  2
|389>   p 2
|390>    1      0.860000      17.997720  2
|391>    2      0.172000      -0.032600  2
|392>   d 2
|393>    1      1.600000      -9.504310  2
|394>    2      0.320000      -0.151370  2
|395>   f 1
|396>    1      1.000000000    0.000000000 2
|397> end
|398> Ti>    4.00000000000   -3.25402271772   -0.00000100232   -7.78540932970
|399> NewECP
|400> N_core 0
|401>   lmax f
|402>   s 2
|403>    1      0.860000       9.191690  2
|404>    2      0.172000       0.008301  2
|405>   p 2
|406>    1      0.860000      17.997720  2
|407>    2      0.172000      -0.032600  2
|408>   d 2
|409>    1      1.600000      -9.504310  2
|410>    2      0.320000      -0.151370  2
|411>   f 1
|412>    1      1.000000000    0.000000000 2
|413> end
|414> Ti>    4.00000000000   -3.25402271772    2.96109253364   -7.78540932970
|415> NewECP
|416> N_core 0
|417>   lmax f
|418>   s 2
|419>    1      0.860000       9.191690  2
|420>    2      0.172000       0.008301  2
|421>   p 2
|422>    1      0.860000      17.997720  2
|423>    2      0.172000      -0.032600  2
|424>   d 2
|425>    1      1.600000      -9.504310  2
|426>    2      0.320000      -0.151370  2
|427>   f 1
|428>    1      1.000000000    0.000000000 2
|429> end
|430> Ti>    4.00000000000    3.25401657974    2.96109253364   -7.78540932970
|431> NewECP
|432> N_core 0
|433>   lmax f
|434>   s 2
|435>    1      0.860000       9.191690  2
|436>    2      0.172000       0.008301  2
|437>   p 2
|438>    1      0.860000      17.997720  2
|439>    2      0.172000      -0.032600  2
|440>   d 2
|441>    1      1.600000      -9.504310  2
|442>    2      0.320000      -0.151370  2
|443>   f 1
|444>    1      1.000000000    0.000000000 2
|445> end
|446> Ti>    4.00000000000    3.25401657974   -2.96109453828   -7.78540932970
|447> NewECP
|448> N_core 0
|449>   lmax f
|450>   s 2
|451>    1      0.860000       9.191690  2
|452>    2      0.172000       0.008301  2
|453>   p 2
|454>    1      0.860000      17.997720  2
|455>    2      0.172000      -0.032600  2
|456>   d 2
|457>    1      1.600000      -9.504310  2
|458>    2      0.320000      -0.151370  2
|459>   f 1
|460>    1      1.000000000    0.000000000 2
|461> end
|462> Ti>    4.00000000000   -3.25402271772   -2.96109453828   -7.78540932970
|463> NewECP
|464> N_core 0
|465>   lmax f
|466>   s 2
|467>    1      0.860000       9.191690  2
|468>    2      0.172000       0.008301  2
|469>   p 2
|470>    1      0.860000      17.997720  2
|471>    2      0.172000      -0.032600  2
|472>   d 2
|473>    1      1.600000      -9.504310  2
|474>    2      0.320000      -0.151370  2
|475>   f 1
|476>    1      1.000000000    0.000000000 2
|477> end
|478> Ti>    4.00000000000   -0.00000306899    4.44163930162   -7.78540932970
|479> NewECP
|480> N_core 0
|481>   lmax f
|482>   s 2
|483>    1      0.860000       9.191690  2
|484>    2      0.172000       0.008301  2
|485>   p 2
|486>    1      0.860000      17.997720  2
|487>    2      0.172000      -0.032600  2
|488>   d 2
|489>    1      1.600000      -9.504310  2
|490>    2      0.320000      -0.151370  2
|491>   f 1
|492>    1      1.000000000    0.000000000 2
|493> end
|494> Ti>    4.00000000000   -0.00000306899   -4.44164130627   -7.78540932970
|495> NewECP
|496> N_core 0
|497>   lmax f
|498>   s 2
|499>    1      0.860000       9.191690  2
|500>    2      0.172000       0.008301  2
|501>   p 2
|502>    1      0.860000      17.997720  2
|503>    2      0.172000      -0.032600  2
|504>   d 2
|505>    1      1.600000      -9.504310  2
|506>    2      0.320000      -0.151370  2
|507>   f 1
|508>    1      1.000000000    0.000000000 2
|509> end
|510> Ti>    4.00000000000   -3.25408714585    7.40273240730   -4.59991327640
|511> NewECP
|512> N_core 0
|513>   lmax f
|514>   s 2
|515>    1      0.860000       9.191690  2
|516>    2      0.172000       0.008301  2
|517>   p 2
|518>    1      0.860000      17.997720  2
|519>    2      0.172000      -0.032600  2
|520>   d 2
|521>    1      1.600000      -9.504310  2
|522>    2      0.320000      -0.151370  2
|523>   f 1
|524>    1      1.000000000    0.000000000 2
|525> end
|526> Ti>    4.00000000000    3.25395215162    7.40273240730   -4.59991327640
|527> NewECP
|528> N_core 0
|529>   lmax f
|530>   s 2
|531>    1      0.860000       9.191690  2
|532>    2      0.172000       0.008301  2
|533>   p 2
|534>    1      0.860000      17.997720  2
|535>    2      0.172000      -0.032600  2
|536>   d 2
|537>    1      1.600000      -9.504310  2
|538>    2      0.320000      -0.151370  2
|539>   f 1
|540>    1      1.000000000    0.000000000 2
|541> end
|542> Ti>    4.00000000000    3.25395195581   -7.40273429615   -4.59991284715
|543> NewECP
|544> N_core 0
|545>   lmax f
|546>   s 2
|547>    1      0.860000       9.191690  2
|548>    2      0.172000       0.008301  2
|549>   p 2
|550>    1      0.860000      17.997720  2
|551>    2      0.172000      -0.032600  2
|552>   d 2
|553>    1      1.600000      -9.504310  2
|554>    2      0.320000      -0.151370  2
|555>   f 1
|556>    1      1.000000000    0.000000000 2
|557> end
|558> Ti>    4.00000000000   -3.25408734165   -7.40273429615   -4.59991284715
|559> NewECP
|560> N_core 0
|561>   lmax f
|562>   s 2
|563>    1      0.860000       9.191690  2
|564>    2      0.172000       0.008301  2
|565>   p 2
|566>    1      0.860000      17.997720  2
|567>    2      0.172000      -0.032600  2
|568>   d 2
|569>    1      1.600000      -9.504310  2
|570>    2      0.320000      -0.151370  2
|571>   f 1
|572>    1      1.000000000    0.000000000 2
|573> end
|574> Ti>    4.00000000000   -3.25401668289    8.88328009748   -1.42716235830
|575> NewECP
|576> N_core 0
|577>   lmax f
|578>   s 2
|579>    1      0.860000       9.191690  2
|580>    2      0.172000       0.008301  2
|581>   p 2
|582>    1      0.860000      17.997720  2
|583>    2      0.172000      -0.032600  2
|584>   d 2
|585>    1      1.600000      -9.504310  2
|586>    2      0.320000      -0.151370  2
|587>   f 1
|588>    1      1.000000000    0.000000000 2
|589> end
|590> Ti>    4.00000000000    3.25402261457    8.88328009748   -1.42716235830
|591> NewECP
|592> N_core 0
|593>   lmax f
|594>   s 2
|595>    1      0.860000       9.191690  2
|596>    2      0.172000       0.008301  2
|597>   p 2
|598>    1      0.860000      17.997720  2
|599>    2      0.172000      -0.032600  2
|600>   d 2
|601>    1      1.600000      -9.504310  2
|602>    2      0.320000      -0.151370  2
|603>   f 1
|604>    1      1.000000000    0.000000000 2
|605> end
|606> Ti>    4.00000000000    3.25402261457   -8.88328111830   -1.42716235830
|607> NewECP
|608> N_core 0
|609>   lmax f
|610>   s 2
|611>    1      0.860000       9.191690  2
|612>    2      0.172000       0.008301  2
|613>   p 2
|614>    1      0.860000      17.997720  2
|615>    2      0.172000      -0.032600  2
|616>   d 2
|617>    1      1.600000      -9.504310  2
|618>    2      0.320000      -0.151370  2
|619>   f 1
|620>    1      1.000000000    0.000000000 2
|621> end
|622> Ti>    4.00000000000   -3.25401668289   -8.88328111830   -1.42716235830
|623> NewECP
|624> N_core 0
|625>   lmax f
|626>   s 2
|627>    1      0.860000       9.191690  2
|628>    2      0.172000       0.008301  2
|629>   p 2
|630>    1      0.860000      17.997720  2
|631>    2      0.172000      -0.032600  2
|632>   d 2
|633>    1      1.600000      -9.504310  2
|634>    2      0.320000      -0.151370  2
|635>   f 1
|636>    1      1.000000000    0.000000000 2
|637> end
|638> Ti>    4.00000000000    6.50798709372    5.92218636178   -4.41288396045
|639> NewECP
|640> N_core 0
|641>   lmax f
|642>   s 2
|643>    1      0.860000       9.191690  2
|644>    2      0.172000       0.008301  2
|645>   p 2
|646>    1      0.860000      17.997720  2
|647>    2      0.172000      -0.032600  2
|648>   d 2
|649>    1      1.600000      -9.504310  2
|650>    2      0.320000      -0.151370  2
|651>   f 1
|652>    1      1.000000000    0.000000000 2
|653> end
|654> Ti>    4.00000000000    6.50798709372   -5.92218778207   -4.41288396045
|655> NewECP
|656> N_core 0
|657>   lmax f
|658>   s 2
|659>    1      0.860000       9.191690  2
|660>    2      0.172000       0.008301  2
|661>   p 2
|662>    1      0.860000      17.997720  2
|663>    2      0.172000      -0.032600  2
|664>   d 2
|665>    1      1.600000      -9.504310  2
|666>    2      0.320000      -0.151370  2
|667>   f 1
|668>    1      1.000000000    0.000000000 2
|669> end
|670> Ti>    4.00000000000   -6.50809150121    5.92218636178   -4.41288396045
|671> NewECP
|672> N_core 0
|673>   lmax f
|674>   s 2
|675>    1      0.860000       9.191690  2
|676>    2      0.172000       0.008301  2
|677>   p 2
|678>    1      0.860000      17.997720  2
|679>    2      0.172000      -0.032600  2
|680>   d 2
|681>    1      1.600000      -9.504310  2
|682>    2      0.320000      -0.151370  2
|683>   f 1
|684>    1      1.000000000    0.000000000 2
|685> end
|686> Ti>    4.00000000000   -6.50809150121   -5.92218778207   -4.41288396045
|687> NewECP
|688> N_core 0
|689>   lmax f
|690>   s 2
|691>    1      0.860000       9.191690  2
|692>    2      0.172000       0.008301  2
|693>   p 2
|694>    1      0.860000      17.997720  2
|695>    2      0.172000      -0.032600  2
|696>   d 2
|697>    1      1.600000      -9.504310  2
|698>    2      0.320000      -0.151370  2
|699>   f 1
|700>    1      1.000000000    0.000000000 2
|701> end
|702> Ti>    4.00000000000    9.76206248938   -0.00000112036   -1.42716202606
|703> NewECP
|704> N_core 0
|705>   lmax f
|706>   s 2
|707>    1      0.860000       9.191690  2
|708>    2      0.172000       0.008301  2
|709>   p 2
|710>    1      0.860000      17.997720  2
|711>    2      0.172000      -0.032600  2
|712>   d 2
|713>    1      1.600000      -9.504310  2
|714>    2      0.320000      -0.151370  2
|715>   f 1
|716>    1      1.000000000    0.000000000 2
|717> end
|718> Ti>    4.00000000000   -9.76205540302   -0.00000112036   -1.42716202606
|719> NewECP
|720> N_core 0
|721>   lmax f
|722>   s 2
|723>    1      0.860000       9.191690  2
|724>    2      0.172000       0.008301  2
|725>   p 2
|726>    1      0.860000      17.997720  2
|727>    2      0.172000      -0.032600  2
|728>   d 2
|729>    1      1.600000      -9.504310  2
|730>    2      0.320000      -0.151370  2
|731>   f 1
|732>    1      1.000000000    0.000000000 2
|733> end
|734> Ti>    4.00000000000   -6.50803392749    7.40273856892   -1.06892606631
|735> NewECP
|736> N_core 0
|737>   lmax f
|738>   s 2
|739>    1      0.860000       9.191690  2
|740>    2      0.172000       0.008301  2
|741>   p 2
|742>    1      0.860000      17.997720  2
|743>    2      0.172000      -0.032600  2
|744>   d 2
|745>    1      1.600000      -9.504310  2
|746>    2      0.320000      -0.151370  2
|747>   f 1
|748>    1      1.000000000    0.000000000 2
|749> end
|750> Ti>    4.00000000000    6.50804466744    7.40273856892   -1.06892606631
|751> NewECP
|752> N_core 0
|753>   lmax f
|754>   s 2
|755>    1      0.860000       9.191690  2
|756>    2      0.172000       0.008301  2
|757>   p 2
|758>    1      0.860000      17.997720  2
|759>    2      0.172000      -0.032600  2
|760>   d 2
|761>    1      1.600000      -9.504310  2
|762>    2      0.320000      -0.151370  2
|763>   f 1
|764>    1      1.000000000    0.000000000 2
|765> end
|766> Ti>    4.00000000000    6.50804481848   -7.40274019579   -1.06892138720
|767> NewECP
|768> N_core 0
|769>   lmax f
|770>   s 2
|771>    1      0.860000       9.191690  2
|772>    2      0.172000       0.008301  2
|773>   p 2
|774>    1      0.860000      17.997720  2
|775>    2      0.172000      -0.032600  2
|776>   d 2
|777>    1      1.600000      -9.504310  2
|778>    2      0.320000      -0.151370  2
|779>   f 1
|780>    1      1.000000000    0.000000000 2
|781> end
|782> Ti>    4.00000000000   -6.50803377645   -7.40274019579   -1.06892138720
|783> NewECP
|784> N_core 0
|785>   lmax f
|786>   s 2
|787>    1      0.860000       9.191690  2
|788>    2      0.172000       0.008301  2
|789>   p 2
|790>    1      0.860000      17.997720  2
|791>    2      0.172000      -0.032600  2
|792>   d 2
|793>    1      1.600000      -9.504310  2
|794>    2      0.320000      -0.151370  2
|795>   f 1
|796>    1      1.000000000    0.000000000 2
|797> end
|798> Ti>    4.00000000000   -0.00005206359    8.88328008829   -4.41288206312
|799> NewECP
|800> N_core 0
|801>   lmax f
|802>   s 2
|803>    1      0.860000       9.191690  2
|804>    2      0.172000       0.008301  2
|805>   p 2
|806>    1      0.860000      17.997720  2
|807>    2      0.172000      -0.032600  2
|808>   d 2
|809>    1      1.600000      -9.504310  2
|810>    2      0.320000      -0.151370  2
|811>   f 1
|812>    1      1.000000000    0.000000000 2
|813> end
|814> Ti>    4.00000000000   -0.00005206359   -8.88328112748   -4.41288206312
|815> NewECP
|816> N_core 0
|817>   lmax f
|818>   s 2
|819>    1      0.860000       9.191690  2
|820>    2      0.172000       0.008301  2
|821>   p 2
|822>    1      0.860000      17.997720  2
|823>    2      0.172000      -0.032600  2
|824>   d 2
|825>    1      1.600000      -9.504310  2
|826>    2      0.320000      -0.151370  2
|827>   f 1
|828>    1      1.000000000    0.000000000 2
|829> end
|830> Ti>    4.00000000000   -6.50804236645    1.48054576566   -7.78540932970
|831> NewECP
|832> N_core 0
|833>   lmax f
|834>   s 2
|835>    1      0.860000       9.191690  2
|836>    2      0.172000       0.008301  2
|837>   p 2
|838>    1      0.860000      17.997720  2
|839>    2      0.172000      -0.032600  2
|840>   d 2
|841>    1      1.600000      -9.504310  2
|842>    2      0.320000      -0.151370  2
|843>   f 1
|844>    1      1.000000000    0.000000000 2
|845> end
|846> Ti>    4.00000000000    6.50803622848    1.48054576566   -7.78540932970
|847> NewECP
|848> N_core 0
|849>   lmax f
|850>   s 2
|851>    1      0.860000       9.191690  2
|852>    2      0.172000       0.008301  2
|853>   p 2
|854>    1      0.860000      17.997720  2
|855>    2      0.172000      -0.032600  2
|856>   d 2
|857>    1      1.600000      -9.504310  2
|858>    2      0.320000      -0.151370  2
|859>   f 1
|860>    1      1.000000000    0.000000000 2
|861> end
|862> Ti>    4.00000000000    6.50803622848   -1.48054777030   -7.78540932970
|863> NewECP
|864> N_core 0
|865>   lmax f
|866>   s 2
|867>    1      0.860000       9.191690  2
|868>    2      0.172000       0.008301  2
|869>   p 2
|870>    1      0.860000      17.997720  2
|871>    2      0.172000      -0.032600  2
|872>   d 2
|873>    1      1.600000      -9.504310  2
|874>    2      0.320000      -0.151370  2
|875>   f 1
|876>    1      1.000000000    0.000000000 2
|877> end
|878> Ti>    4.00000000000   -6.50804236645   -1.48054777030   -7.78540932970
|879> NewECP
|880> N_core 0
|881>   lmax f
|882>   s 2
|883>    1      0.860000       9.191690  2
|884>    2      0.172000       0.008301  2
|885>   p 2
|886>    1      0.860000      17.997720  2
|887>    2      0.172000      -0.032600  2
|888>   d 2
|889>    1      1.600000      -9.504310  2
|890>    2      0.320000      -0.151370  2
|891>   f 1
|892>    1      1.000000000    0.000000000 2
|893> end
|894> Ti>    4.00000000000   -9.76205598036    2.96109302555   -1.42716235830
|895> NewECP
|896> N_core 0
|897>   lmax f
|898>   s 2
|899>    1      0.860000       9.191690  2
|900>    2      0.172000       0.008301  2
|901>   p 2
|902>    1      0.860000      17.997720  2
|903>    2      0.172000      -0.032600  2
|904>   d 2
|905>    1      1.600000      -9.504310  2
|906>    2      0.320000      -0.151370  2
|907>   f 1
|908>    1      1.000000000    0.000000000 2
|909> end
|910> Ti>    4.00000000000    9.76206191204    2.96109302555   -1.42716235830
|911> NewECP
|912> N_core 0
|913>   lmax f
|914>   s 2
|915>    1      0.860000       9.191690  2
|916>    2      0.172000       0.008301  2
|917>   p 2
|918>    1      0.860000      17.997720  2
|919>    2      0.172000      -0.032600  2
|920>   d 2
|921>    1      1.600000      -9.504310  2
|922>    2      0.320000      -0.151370  2
|923>   f 1
|924>    1      1.000000000    0.000000000 2
|925> end
|926> Ti>    4.00000000000    9.76206191204   -2.96109404638   -1.42716235830
|927> NewECP
|928> N_core 0
|929>   lmax f
|930>   s 2
|931>    1      0.860000       9.191690  2
|932>    2      0.172000       0.008301  2
|933>   p 2
|934>    1      0.860000      17.997720  2
|935>    2      0.172000      -0.032600  2
|936>   d 2
|937>    1      1.600000      -9.504310  2
|938>    2      0.320000      -0.151370  2
|939>   f 1
|940>    1      1.000000000    0.000000000 2
|941> end
|942> Ti>    4.00000000000   -9.76205598036   -2.96109404638   -1.42716235830
|943> NewECP
|944> N_core 0
|945>   lmax f
|946>   s 2
|947>    1      0.860000       9.191690  2
|948>    2      0.172000       0.008301  2
|949>   p 2
|950>    1      0.860000      17.997720  2
|951>    2      0.172000      -0.032600  2
|952>   d 2
|953>    1      1.600000      -9.504310  2
|954>    2      0.320000      -0.151370  2
|955>   f 1
|956>    1      1.000000000    0.000000000 2
|957> end
|958> Ti>    4.00000000000   -3.25402271772    5.92218606960   -7.78540932970
|959> NewECP
|960> N_core 0
|961>   lmax f
|962>   s 2
|963>    1      0.860000       9.191690  2
|964>    2      0.172000       0.008301  2
|965>   p 2
|966>    1      0.860000      17.997720  2
|967>    2      0.172000      -0.032600  2
|968>   d 2
|969>    1      1.600000      -9.504310  2
|970>    2      0.320000      -0.151370  2
|971>   f 1
|972>    1      1.000000000    0.000000000 2
|973> end
|974> Ti>    4.00000000000    3.25401657974    5.92218606960   -7.78540932970
|975> NewECP
|976> N_core 0
|977>   lmax f
|978>   s 2
|979>    1      0.860000       9.191690  2
|980>    2      0.172000       0.008301  2
|981>   p 2
|982>    1      0.860000      17.997720  2
|983>    2      0.172000      -0.032600  2
|984>   d 2
|985>    1      1.600000      -9.504310  2
|986>    2      0.320000      -0.151370  2
|987>   f 1
|988>    1      1.000000000    0.000000000 2
|989> end
|990> Ti>    4.00000000000    3.25401657974   -5.92218807425   -7.78540932970
|991> NewECP
|992> N_core 0
|993>   lmax f
|994>   s 2
|995>    1      0.860000       9.191690  2
|996>    2      0.172000       0.008301  2
|997>   p 2
|998>    1      0.860000      17.997720  2
|999>    2      0.172000      -0.032600  2
|1000>   d 2
|1001>    1      1.600000      -9.504310  2
|1002>    2      0.320000      -0.151370  2
|1003>   f 1
|1004>    1      1.000000000    0.000000000 2
|1005> end
|1006> Ti>    4.00000000000   -3.25402271772   -5.92218807425   -7.78540932970
|1007> NewECP
|1008> N_core 0
|1009>   lmax f
|1010>   s 2
|1011>    1      0.860000       9.191690  2
|1012>    2      0.172000       0.008301  2
|1013>   p 2
|1014>    1      0.860000      17.997720  2
|1015>    2      0.172000      -0.032600  2
|1016>   d 2
|1017>    1      1.600000      -9.504310  2
|1018>    2      0.320000      -0.151370  2
|1019>   f 1
|1020>    1      1.000000000    0.000000000 2
|1021> end
|1022> Ti>    4.00000000000    0.00000552101   10.36382101999   -1.06892138720
|1023> NewECP
|1024> N_core 0
|1025>   lmax f
|1026>   s 2
|1027>    1      0.860000       9.191690  2
|1028>    2      0.172000       0.008301  2
|1029>   p 2
|1030>    1      0.860000      17.997720  2
|1031>    2      0.172000      -0.032600  2
|1032>   d 2
|1033>    1      1.600000      -9.504310  2
|1034>    2      0.320000      -0.151370  2
|1035>   f 1
|1036>    1      1.000000000    0.000000000 2
|1037> end
|1038> Ti>    4.00000000000    0.00000536997  -10.36382264685   -1.06892606631
|1039> NewECP
|1040> N_core 0
|1041>   lmax f
|1042>   s 2
|1043>    1      0.860000       9.191690  2
|1044>    2      0.172000       0.008301  2
|1045>   p 2
|1046>    1      0.860000      17.997720  2
|1047>    2      0.172000      -0.032600  2
|1048>   d 2
|1049>    1      1.600000      -9.504310  2
|1050>    2      0.320000      -0.151370  2
|1051>   f 1
|1052>    1      1.000000000    0.000000000 2
|1053> end
|1054> Ti>    4.00000000000   -0.00000306899    7.40273283758   -7.78540932970
|1055> NewECP
|1056> N_core 0
|1057>   lmax f
|1058>   s 2
|1059>    1      0.860000       9.191690  2
|1060>    2      0.172000       0.008301  2
|1061>   p 2
|1062>    1      0.860000      17.997720  2
|1063>    2      0.172000      -0.032600  2
|1064>   d 2
|1065>    1      1.600000      -9.504310  2
|1066>    2      0.320000      -0.151370  2
|1067>   f 1
|1068>    1      1.000000000    0.000000000 2
|1069> end
|1070> Ti>    4.00000000000   -0.00000306899   -7.40273484223   -7.78540932970
|1071> NewECP
|1072> N_core 0
|1073>   lmax f
|1074>   s 2
|1075>    1      0.860000       9.191690  2
|1076>    2      0.172000       0.008301  2
|1077>   p 2
|1078>    1      0.860000      17.997720  2
|1079>    2      0.172000      -0.032600  2
|1080>   d 2
|1081>    1      1.600000      -9.504310  2
|1082>    2      0.320000      -0.151370  2
|1083>   f 1
|1084>    1      1.000000000    0.000000000 2
|1085> end
|1086> Ti>    4.00000000000    9.76199144908    1.48054533538   -4.59991327640
|1087> NewECP
|1088> N_core 0
|1089>   lmax f
|1090>   s 2
|1091>    1      0.860000       9.191690  2
|1092>    2      0.172000       0.008301  2
|1093>   p 2
|1094>    1      0.860000      17.997720  2
|1095>    2      0.172000      -0.032600  2
|1096>   d 2
|1097>    1      1.600000      -9.504310  2
|1098>    2      0.320000      -0.151370  2
|1099>   f 1
|1100>    1      1.000000000    0.000000000 2
|1101> end
|1102> Ti>    4.00000000000    9.76199125328   -1.48054722422   -4.59991284715
|1103> NewECP
|1104> N_core 0
|1105>   lmax f
|1106>   s 2
|1107>    1      0.860000       9.191690  2
|1108>    2      0.172000       0.008301  2
|1109>   p 2
|1110>    1      0.860000      17.997720  2
|1111>    2      0.172000      -0.032600  2
|1112>   d 2
|1113>    1      1.600000      -9.504310  2
|1114>    2      0.320000      -0.151370  2
|1115>   f 1
|1116>    1      1.000000000    0.000000000 2
|1117> end
|1118> Ti>    4.00000000000   -9.76212644332    1.48054533538   -4.59991327640
|1119> NewECP
|1120> N_core 0
|1121>   lmax f
|1122>   s 2
|1123>    1      0.860000       9.191690  2
|1124>    2      0.172000       0.008301  2
|1125>   p 2
|1126>    1      0.860000      17.997720  2
|1127>    2      0.172000      -0.032600  2
|1128>   d 2
|1129>    1      1.600000      -9.504310  2
|1130>    2      0.320000      -0.151370  2
|1131>   f 1
|1132>    1      1.000000000    0.000000000 2
|1133> end
|1134> Ti>    4.00000000000   -9.76212663912   -1.48054722422   -4.59991284715
|1135> NewECP
|1136> N_core 0
|1137>   lmax f
|1138>   s 2
|1139>    1      0.860000       9.191690  2
|1140>    2      0.172000       0.008301  2
|1141>   p 2
|1142>    1      0.860000      17.997720  2
|1143>    2      0.172000      -0.032600  2
|1144>   d 2
|1145>    1      1.600000      -9.504310  2
|1146>    2      0.320000      -0.151370  2
|1147>   f 1
|1148>    1      1.000000000    0.000000000 2
|1149> end
|1150> Ti>    4.00000000000   -0.00000306899   -0.00000100232  -11.03942897843
|1151> NewECP
|1152> N_core 0
|1153>   lmax f
|1154>   s 2
|1155>    1      0.860000       9.191690  2
|1156>    2      0.172000       0.008301  2
|1157>   p 2
|1158>    1      0.860000      17.997720  2
|1159>    2      0.172000      -0.032600  2
|1160>   d 2
|1161>    1      1.600000      -9.504310  2
|1162>    2      0.320000      -0.151370  2
|1163>   f 1
|1164>    1      1.000000000    0.000000000 2
|1165> end
|1166> Ti>    4.00000000000   -6.50804236645    4.44163930162   -7.78540932970
|1167> NewECP
|1168> N_core 0
|1169>   lmax f
|1170>   s 2
|1171>    1      0.860000       9.191690  2
|1172>    2      0.172000       0.008301  2
|1173>   p 2
|1174>    1      0.860000      17.997720  2
|1175>    2      0.172000      -0.032600  2
|1176>   d 2
|1177>    1      1.600000      -9.504310  2
|1178>    2      0.320000      -0.151370  2
|1179>   f 1
|1180>    1      1.000000000    0.000000000 2
|1181> end
|1182> Ti>    4.00000000000    6.50803622848    4.44163930162   -7.78540932970
|1183> NewECP
|1184> N_core 0
|1185>   lmax f
|1186>   s 2
|1187>    1      0.860000       9.191690  2
|1188>    2      0.172000       0.008301  2
|1189>   p 2
|1190>    1      0.860000      17.997720  2
|1191>    2      0.172000      -0.032600  2
|1192>   d 2
|1193>    1      1.600000      -9.504310  2
|1194>    2      0.320000      -0.151370  2
|1195>   f 1
|1196>    1      1.000000000    0.000000000 2
|1197> end
|1198> Ti>    4.00000000000    6.50803622848   -4.44164130627   -7.78540932970
|1199> NewECP
|1200> N_core 0
|1201>   lmax f
|1202>   s 2
|1203>    1      0.860000       9.191690  2
|1204>    2      0.172000       0.008301  2
|1205>   p 2
|1206>    1      0.860000      17.997720  2
|1207>    2      0.172000      -0.032600  2
|1208>   d 2
|1209>    1      1.600000      -9.504310  2
|1210>    2      0.320000      -0.151370  2
|1211>   f 1
|1212>    1      1.000000000    0.000000000 2
|1213> end
|1214> Ti>    4.00000000000   -6.50804236645   -4.44164130627   -7.78540932970
|1215> NewECP
|1216> N_core 0
|1217>   lmax f
|1218>   s 2
|1219>    1      0.860000       9.191690  2
|1220>    2      0.172000       0.008301  2
|1221>   p 2
|1222>    1      0.860000      17.997720  2
|1223>    2      0.172000      -0.032600  2
|1224>   d 2
|1225>    1      1.600000      -9.504310  2
|1226>    2      0.320000      -0.151370  2
|1227>   f 1
|1228>    1      1.000000000    0.000000000 2
|1229> end
|1230> Ti>    4.00000000000   -0.00000306899    2.96109253364  -11.03942897843
|1231> NewECP
|1232> N_core 0
|1233>   lmax f
|1234>   s 2
|1235>    1      0.860000       9.191690  2
|1236>    2      0.172000       0.008301  2
|1237>   p 2
|1238>    1      0.860000      17.997720  2
|1239>    2      0.172000      -0.032600  2
|1240>   d 2
|1241>    1      1.600000      -9.504310  2
|1242>    2      0.320000      -0.151370  2
|1243>   f 1
|1244>    1      1.000000000    0.000000000 2
|1245> end
|1246> Ti>    4.00000000000   -0.00000306899   -2.96109453828  -11.03942897843
|1247> NewECP
|1248> N_core 0
|1249>   lmax f
|1250>   s 2
|1251>    1      0.860000       9.191690  2
|1252>    2      0.172000       0.008301  2
|1253>   p 2
|1254>    1      0.860000      17.997720  2
|1255>    2      0.172000      -0.032600  2
|1256>   d 2
|1257>    1      1.600000      -9.504310  2
|1258>    2      0.320000      -0.151370  2
|1259>   f 1
|1260>    1      1.000000000    0.000000000 2
|1261> end
|1262> Ti>    4.00000000000   -9.76205540302    5.92218595157   -1.42716202606
|1263> NewECP
|1264> N_core 0
|1265>   lmax f
|1266>   s 2
|1267>    1      0.860000       9.191690  2
|1268>    2      0.172000       0.008301  2
|1269>   p 2
|1270>    1      0.860000      17.997720  2
|1271>    2      0.172000      -0.032600  2
|1272>   d 2
|1273>    1      1.600000      -9.504310  2
|1274>    2      0.320000      -0.151370  2
|1275>   f 1
|1276>    1      1.000000000    0.000000000 2
|1277> end
|1278> Ti>    4.00000000000    9.76206248938    5.92218595157   -1.42716202606
|1279> NewECP
|1280> N_core 0
|1281>   lmax f
|1282>   s 2
|1283>    1      0.860000       9.191690  2
|1284>    2      0.172000       0.008301  2
|1285>   p 2
|1286>    1      0.860000      17.997720  2
|1287>    2      0.172000      -0.032600  2
|1288>   d 2
|1289>    1      1.600000      -9.504310  2
|1290>    2      0.320000      -0.151370  2
|1291>   f 1
|1292>    1      1.000000000    0.000000000 2
|1293> end
|1294> Ti>    4.00000000000    9.76206248938   -5.92218819228   -1.42716202606
|1295> NewECP
|1296> N_core 0
|1297>   lmax f
|1298>   s 2
|1299>    1      0.860000       9.191690  2
|1300>    2      0.172000       0.008301  2
|1301>   p 2
|1302>    1      0.860000      17.997720  2
|1303>    2      0.172000      -0.032600  2
|1304>   d 2
|1305>    1      1.600000      -9.504310  2
|1306>    2      0.320000      -0.151370  2
|1307>   f 1
|1308>    1      1.000000000    0.000000000 2
|1309> end
|1310> Ti>    4.00000000000   -9.76205540302   -5.92218819228   -1.42716202606
|1311> NewECP
|1312> N_core 0
|1313>   lmax f
|1314>   s 2
|1315>    1      0.860000       9.191690  2
|1316>    2      0.172000       0.008301  2
|1317>   p 2
|1318>    1      0.860000      17.997720  2
|1319>    2      0.172000      -0.032600  2
|1320>   d 2
|1321>    1      1.600000      -9.504310  2
|1322>    2      0.320000      -0.151370  2
|1323>   f 1
|1324>    1      1.000000000    0.000000000 2
|1325> end
|1326> Ti>    4.00000000000   -3.25402271772    1.48054576566  -11.03942897843
|1327> NewECP
|1328> N_core 0
|1329>   lmax f
|1330>   s 2
|1331>    1      0.860000       9.191690  2
|1332>    2      0.172000       0.008301  2
|1333>   p 2
|1334>    1      0.860000      17.997720  2
|1335>    2      0.172000      -0.032600  2
|1336>   d 2
|1337>    1      1.600000      -9.504310  2
|1338>    2      0.320000      -0.151370  2
|1339>   f 1
|1340>    1      1.000000000    0.000000000 2
|1341> end
|1342> Ti>    4.00000000000    3.25401657974    1.48054576566  -11.03942897843
|1343> NewECP
|1344> N_core 0
|1345>   lmax f
|1346>   s 2
|1347>    1      0.860000       9.191690  2
|1348>    2      0.172000       0.008301  2
|1349>   p 2
|1350>    1      0.860000      17.997720  2
|1351>    2      0.172000      -0.032600  2
|1352>   d 2
|1353>    1      1.600000      -9.504310  2
|1354>    2      0.320000      -0.151370  2
|1355>   f 1
|1356>    1      1.000000000    0.000000000 2
|1357> end
|1358> Ti>    4.00000000000    3.25401657974   -1.48054777030  -11.03942897843
|1359> NewECP
|1360> N_core 0
|1361>   lmax f
|1362>   s 2
|1363>    1      0.860000       9.191690  2
|1364>    2      0.172000       0.008301  2
|1365>   p 2
|1366>    1      0.860000      17.997720  2
|1367>    2      0.172000      -0.032600  2
|1368>   d 2
|1369>    1      1.600000      -9.504310  2
|1370>    2      0.320000      -0.151370  2
|1371>   f 1
|1372>    1      1.000000000    0.000000000 2
|1373> end
|1374> Ti>    4.00000000000   -3.25402271772   -1.48054777030  -11.03942897843
|1375> NewECP
|1376> N_core 0
|1377>   lmax f
|1378>   s 2
|1379>    1      0.860000       9.191690  2
|1380>    2      0.172000       0.008301  2
|1381>   p 2
|1382>    1      0.860000      17.997720  2
|1383>    2      0.172000      -0.032600  2
|1384>   d 2
|1385>    1      1.600000      -9.504310  2
|1386>    2      0.320000      -0.151370  2
|1387>   f 1
|1388>    1      1.000000000    0.000000000 2
|1389> end
|1390> Ti>    4.00000000000    9.76199125328    4.44163984770   -4.59991284715
|1391> NewECP
|1392> N_core 0
|1393>   lmax f
|1394>   s 2
|1395>    1      0.860000       9.191690  2
|1396>    2      0.172000       0.008301  2
|1397>   p 2
|1398>    1      0.860000      17.997720  2
|1399>    2      0.172000      -0.032600  2
|1400>   d 2
|1401>    1      1.600000      -9.504310  2
|1402>    2      0.320000      -0.151370  2
|1403>   f 1
|1404>    1      1.000000000    0.000000000 2
|1405> end
|1406> Ti>    4.00000000000    9.76199144908   -4.44164173655   -4.59991327640
|1407> NewECP
|1408> N_core 0
|1409>   lmax f
|1410>   s 2
|1411>    1      0.860000       9.191690  2
|1412>    2      0.172000       0.008301  2
|1413>   p 2
|1414>    1      0.860000      17.997720  2
|1415>    2      0.172000      -0.032600  2
|1416>   d 2
|1417>    1      1.600000      -9.504310  2
|1418>    2      0.320000      -0.151370  2
|1419>   f 1
|1420>    1      1.000000000    0.000000000 2
|1421> end
|1422> Ti>    4.00000000000   -9.76212663912    4.44163984770   -4.59991284715
|1423> NewECP
|1424> N_core 0
|1425>   lmax f
|1426>   s 2
|1427>    1      0.860000       9.191690  2
|1428>    2      0.172000       0.008301  2
|1429>   p 2
|1430>    1      0.860000      17.997720  2
|1431>    2      0.172000      -0.032600  2
|1432>   d 2
|1433>    1      1.600000      -9.504310  2
|1434>    2      0.320000      -0.151370  2
|1435>   f 1
|1436>    1      1.000000000    0.000000000 2
|1437> end
|1438> Ti>    4.00000000000   -9.76212644332   -4.44164173655   -4.59991327640
|1439> NewECP
|1440> N_core 0
|1441>   lmax f
|1442>   s 2
|1443>    1      0.860000       9.191690  2
|1444>    2      0.172000       0.008301  2
|1445>   p 2
|1446>    1      0.860000      17.997720  2
|1447>    2      0.172000      -0.032600  2
|1448>   d 2
|1449>    1      1.600000      -9.504310  2
|1450>    2      0.320000      -0.151370  2
|1451>   f 1
|1452>    1      1.000000000    0.000000000 2
|1453> end
|1454> Ti>    4.00000000000   -3.25408734165   10.36382691963   -4.59991284715
|1455> NewECP
|1456> N_core 0
|1457>   lmax f
|1458>   s 2
|1459>    1      0.860000       9.191690  2
|1460>    2      0.172000       0.008301  2
|1461>   p 2
|1462>    1      0.860000      17.997720  2
|1463>    2      0.172000      -0.032600  2
|1464>   d 2
|1465>    1      1.600000      -9.504310  2
|1466>    2      0.320000      -0.151370  2
|1467>   f 1
|1468>    1      1.000000000    0.000000000 2
|1469> end
|1470> Ti>    4.00000000000    3.25395195581   10.36382691963   -4.59991284715
|1471> NewECP
|1472> N_core 0
|1473>   lmax f
|1474>   s 2
|1475>    1      0.860000       9.191690  2
|1476>    2      0.172000       0.008301  2
|1477>   p 2
|1478>    1      0.860000      17.997720  2
|1479>    2      0.172000      -0.032600  2
|1480>   d 2
|1481>    1      1.600000      -9.504310  2
|1482>    2      0.320000      -0.151370  2
|1483>   f 1
|1484>    1      1.000000000    0.000000000 2
|1485> end
|1486> Ti>    4.00000000000    3.25395215162  -10.36382880847   -4.59991327640
|1487> NewECP
|1488> N_core 0
|1489>   lmax f
|1490>   s 2
|1491>    1      0.860000       9.191690  2
|1492>    2      0.172000       0.008301  2
|1493>   p 2
|1494>    1      0.860000      17.997720  2
|1495>    2      0.172000      -0.032600  2
|1496>   d 2
|1497>    1      1.600000      -9.504310  2
|1498>    2      0.320000      -0.151370  2
|1499>   f 1
|1500>    1      1.000000000    0.000000000 2
|1501> end
|1502> Ti>    4.00000000000   -3.25408714585  -10.36382880847   -4.59991327640
|1503> NewECP
|1504> N_core 0
|1505>   lmax f
|1506>   s 2
|1507>    1      0.860000       9.191690  2
|1508>    2      0.172000       0.008301  2
|1509>   p 2
|1510>    1      0.860000      17.997720  2
|1511>    2      0.172000      -0.032600  2
|1512>   d 2
|1513>    1      1.600000      -9.504310  2
|1514>    2      0.320000      -0.151370  2
|1515>   f 1
|1516>    1      1.000000000    0.000000000 2
|1517> end
|1518> Ti>    4.00000000000    6.50798723387    8.88328008829   -4.41288206312
|1519> NewECP
|1520> N_core 0
|1521>   lmax f
|1522>   s 2
|1523>    1      0.860000       9.191690  2
|1524>    2      0.172000       0.008301  2
|1525>   p 2
|1526>    1      0.860000      17.997720  2
|1527>    2      0.172000      -0.032600  2
|1528>   d 2
|1529>    1      1.600000      -9.504310  2
|1530>    2      0.320000      -0.151370  2
|1531>   f 1
|1532>    1      1.000000000    0.000000000 2
|1533> end
|1534> Ti>    4.00000000000    6.50798723387   -8.88328112748   -4.41288206312
|1535> NewECP
|1536> N_core 0
|1537>   lmax f
|1538>   s 2
|1539>    1      0.860000       9.191690  2
|1540>    2      0.172000       0.008301  2
|1541>   p 2
|1542>    1      0.860000      17.997720  2
|1543>    2      0.172000      -0.032600  2
|1544>   d 2
|1545>    1      1.600000      -9.504310  2
|1546>    2      0.320000      -0.151370  2
|1547>   f 1
|1548>    1      1.000000000    0.000000000 2
|1549> end
|1550> Ti>    4.00000000000   -6.50809136106    8.88328008829   -4.41288206312
|1551> NewECP
|1552> N_core 0
|1553>   lmax f
|1554>   s 2
|1555>    1      0.860000       9.191690  2
|1556>    2      0.172000       0.008301  2
|1557>   p 2
|1558>    1      0.860000      17.997720  2
|1559>    2      0.172000      -0.032600  2
|1560>   d 2
|1561>    1      1.600000      -9.504310  2
|1562>    2      0.320000      -0.151370  2
|1563>   f 1
|1564>    1      1.000000000    0.000000000 2
|1565> end
|1566> Ti>    4.00000000000   -6.50809136106   -8.88328112748   -4.41288206312
|1567> NewECP
|1568> N_core 0
|1569>   lmax f
|1570>   s 2
|1571>    1      0.860000       9.191690  2
|1572>    2      0.172000       0.008301  2
|1573>   p 2
|1574>    1      0.860000      17.997720  2
|1575>    2      0.172000      -0.032600  2
|1576>   d 2
|1577>    1      1.600000      -9.504310  2
|1578>    2      0.320000      -0.151370  2
|1579>   f 1
|1580>    1      1.000000000    0.000000000 2
|1581> end
|1582> Ti>    4.00000000000   -3.25402271772    8.88327960557   -7.78540932970
|1583> NewECP
|1584> N_core 0
|1585>   lmax f
|1586>   s 2
|1587>    1      0.860000       9.191690  2
|1588>    2      0.172000       0.008301  2
|1589>   p 2
|1590>    1      0.860000      17.997720  2
|1591>    2      0.172000      -0.032600  2
|1592>   d 2
|1593>    1      1.600000      -9.504310  2
|1594>    2      0.320000      -0.151370  2
|1595>   f 1
|1596>    1      1.000000000    0.000000000 2
|1597> end
|1598> Ti>    4.00000000000    3.25401657974    8.88327960557   -7.78540932970
|1599> NewECP
|1600> N_core 0
|1601>   lmax f
|1602>   s 2
|1603>    1      0.860000       9.191690  2
|1604>    2      0.172000       0.008301  2
|1605>   p 2
|1606>    1      0.860000      17.997720  2
|1607>    2      0.172000      -0.032600  2
|1608>   d 2
|1609>    1      1.600000      -9.504310  2
|1610>    2      0.320000      -0.151370  2
|1611>   f 1
|1612>    1      1.000000000    0.000000000 2
|1613> end
|1614> Ti>    4.00000000000    3.25401657974   -8.88328161021   -7.78540932970
|1615> NewECP
|1616> N_core 0
|1617>   lmax f
|1618>   s 2
|1619>    1      0.860000       9.191690  2
|1620>    2      0.172000       0.008301  2
|1621>   p 2
|1622>    1      0.860000      17.997720  2
|1623>    2      0.172000      -0.032600  2
|1624>   d 2
|1625>    1      1.600000      -9.504310  2
|1626>    2      0.320000      -0.151370  2
|1627>   f 1
|1628>    1      1.000000000    0.000000000 2
|1629> end
|1630> Ti>    4.00000000000   -3.25402271772   -8.88328161021   -7.78540932970
|1631> NewECP
|1632> N_core 0
|1633>   lmax f
|1634>   s 2
|1635>    1      0.860000       9.191690  2
|1636>    2      0.172000       0.008301  2
|1637>   p 2
|1638>    1      0.860000      17.997720  2
|1639>    2      0.172000      -0.032600  2
|1640>   d 2
|1641>    1      1.600000      -9.504310  2
|1642>    2      0.320000      -0.151370  2
|1643>   f 1
|1644>    1      1.000000000    0.000000000 2
|1645> end
|1646> Ti>    4.00000000000   -6.50803377645   10.36382101999   -1.06892138720
|1647> NewECP
|1648> N_core 0
|1649>   lmax f
|1650>   s 2
|1651>    1      0.860000       9.191690  2
|1652>    2      0.172000       0.008301  2
|1653>   p 2
|1654>    1      0.860000      17.997720  2
|1655>    2      0.172000      -0.032600  2
|1656>   d 2
|1657>    1      1.600000      -9.504310  2
|1658>    2      0.320000      -0.151370  2
|1659>   f 1
|1660>    1      1.000000000    0.000000000 2
|1661> end
|1662> Ti>    4.00000000000    6.50804481848   10.36382101999   -1.06892138720
|1663> NewECP
|1664> N_core 0
|1665>   lmax f
|1666>   s 2
|1667>    1      0.860000       9.191690  2
|1668>    2      0.172000       0.008301  2
|1669>   p 2
|1670>    1      0.860000      17.997720  2
|1671>    2      0.172000      -0.032600  2
|1672>   d 2
|1673>    1      1.600000      -9.504310  2
|1674>    2      0.320000      -0.151370  2
|1675>   f 1
|1676>    1      1.000000000    0.000000000 2
|1677> end
|1678> Ti>    4.00000000000    6.50804466744  -10.36382264685   -1.06892606631
|1679> NewECP
|1680> N_core 0
|1681>   lmax f
|1682>   s 2
|1683>    1      0.860000       9.191690  2
|1684>    2      0.172000       0.008301  2
|1685>   p 2
|1686>    1      0.860000      17.997720  2
|1687>    2      0.172000      -0.032600  2
|1688>   d 2
|1689>    1      1.600000      -9.504310  2
|1690>    2      0.320000      -0.151370  2
|1691>   f 1
|1692>    1      1.000000000    0.000000000 2
|1693> end
|1694> Ti>    4.00000000000   -6.50803392749  -10.36382264685   -1.06892606631
|1695> NewECP
|1696> N_core 0
|1697>   lmax f
|1698>   s 2
|1699>    1      0.860000       9.191690  2
|1700>    2      0.172000       0.008301  2
|1701>   p 2
|1702>    1      0.860000      17.997720  2
|1703>    2      0.172000      -0.032600  2
|1704>   d 2
|1705>    1      1.600000      -9.504310  2
|1706>    2      0.320000      -0.151370  2
|1707>   f 1
|1708>    1      1.000000000    0.000000000 2
|1709> end
|1710> Ti>    4.00000000000   -3.25402271772    4.44163930162  -11.03942897843
|1711> NewECP
|1712> N_core 0
|1713>   lmax f
|1714>   s 2
|1715>    1      0.860000       9.191690  2
|1716>    2      0.172000       0.008301  2
|1717>   p 2
|1718>    1      0.860000      17.997720  2
|1719>    2      0.172000      -0.032600  2
|1720>   d 2
|1721>    1      1.600000      -9.504310  2
|1722>    2      0.320000      -0.151370  2
|1723>   f 1
|1724>    1      1.000000000    0.000000000 2
|1725> end
|1726> Ti>    4.00000000000    3.25401657974    4.44163930162  -11.03942897843
|1727> NewECP
|1728> N_core 0
|1729>   lmax f
|1730>   s 2
|1731>    1      0.860000       9.191690  2
|1732>    2      0.172000       0.008301  2
|1733>   p 2
|1734>    1      0.860000      17.997720  2
|1735>    2      0.172000      -0.032600  2
|1736>   d 2
|1737>    1      1.600000      -9.504310  2
|1738>    2      0.320000      -0.151370  2
|1739>   f 1
|1740>    1      1.000000000    0.000000000 2
|1741> end
|1742> Ti>    4.00000000000    3.25401657974   -4.44164130627  -11.03942897843
|1743> NewECP
|1744> N_core 0
|1745>   lmax f
|1746>   s 2
|1747>    1      0.860000       9.191690  2
|1748>    2      0.172000       0.008301  2
|1749>   p 2
|1750>    1      0.860000      17.997720  2
|1751>    2      0.172000      -0.032600  2
|1752>   d 2
|1753>    1      1.600000      -9.504310  2
|1754>    2      0.320000      -0.151370  2
|1755>   f 1
|1756>    1      1.000000000    0.000000000 2
|1757> end
|1758> Ti>    4.00000000000   -3.25402271772   -4.44164130627  -11.03942897843
|1759> NewECP
|1760> N_core 0
|1761>   lmax f
|1762>   s 2
|1763>    1      0.860000       9.191690  2
|1764>    2      0.172000       0.008301  2
|1765>   p 2
|1766>    1      0.860000      17.997720  2
|1767>    2      0.172000      -0.032600  2
|1768>   d 2
|1769>    1      1.600000      -9.504310  2
|1770>    2      0.320000      -0.151370  2
|1771>   f 1
|1772>    1      1.000000000    0.000000000 2
|1773> end
|1774> Ti>    4.00000000000   -3.25401610555   11.84437302349   -1.42716202606
|1775> NewECP
|1776> N_core 0
|1777>   lmax f
|1778>   s 2
|1779>    1      0.860000       9.191690  2
|1780>    2      0.172000       0.008301  2
|1781>   p 2
|1782>    1      0.860000      17.997720  2
|1783>    2      0.172000      -0.032600  2
|1784>   d 2
|1785>    1      1.600000      -9.504310  2
|1786>    2      0.320000      -0.151370  2
|1787>   f 1
|1788>    1      1.000000000    0.000000000 2
|1789> end
|1790> Ti>    4.00000000000    3.25402319191   11.84437302349   -1.42716202606
|1791> NewECP
|1792> N_core 0
|1793>   lmax f
|1794>   s 2
|1795>    1      0.860000       9.191690  2
|1796>    2      0.172000       0.008301  2
|1797>   p 2
|1798>    1      0.860000      17.997720  2
|1799>    2      0.172000      -0.032600  2
|1800>   d 2
|1801>    1      1.600000      -9.504310  2
|1802>    2      0.320000      -0.151370  2
|1803>   f 1
|1804>    1      1.000000000    0.000000000 2
|1805> end
|1806> Ti>    4.00000000000    3.25402319191  -11.84437526421   -1.42716202606
|1807> NewECP
|1808> N_core 0
|1809>   lmax f
|1810>   s 2
|1811>    1      0.860000       9.191690  2
|1812>    2      0.172000       0.008301  2
|1813>   p 2
|1814>    1      0.860000      17.997720  2
|1815>    2      0.172000      -0.032600  2
|1816>   d 2
|1817>    1      1.600000      -9.504310  2
|1818>    2      0.320000      -0.151370  2
|1819>   f 1
|1820>    1      1.000000000    0.000000000 2
|1821> end
|1822> Ti>    4.00000000000   -3.25401610555  -11.84437526421   -1.42716202606
|1823> NewECP
|1824> N_core 0
|1825>   lmax f
|1826>   s 2
|1827>    1      0.860000       9.191690  2
|1828>    2      0.172000       0.008301  2
|1829>   p 2
|1830>    1      0.860000      17.997720  2
|1831>    2      0.172000      -0.032600  2
|1832>   d 2
|1833>    1      1.600000      -9.504310  2
|1834>    2      0.320000      -0.151370  2
|1835>   f 1
|1836>    1      1.000000000    0.000000000 2
|1837> end
|1838> Ti>    4.00000000000    9.76205587721   -0.00000100232   -7.78540932970
|1839> NewECP
|1840> N_core 0
|1841>   lmax f
|1842>   s 2
|1843>    1      0.860000       9.191690  2
|1844>    2      0.172000       0.008301  2
|1845>   p 2
|1846>    1      0.860000      17.997720  2
|1847>    2      0.172000      -0.032600  2
|1848>   d 2
|1849>    1      1.600000      -9.504310  2
|1850>    2      0.320000      -0.151370  2
|1851>   f 1
|1852>    1      1.000000000    0.000000000 2
|1853> end
|1854> Ti>    4.00000000000   -9.76206201519   -0.00000100232   -7.78540932970
|1855> NewECP
|1856> N_core 0
|1857>   lmax f
|1858>   s 2
|1859>    1      0.860000       9.191690  2
|1860>    2      0.172000       0.008301  2
|1861>   p 2
|1862>    1      0.860000      17.997720  2
|1863>    2      0.172000      -0.032600  2
|1864>   d 2
|1865>    1      1.600000      -9.504310  2
|1866>    2      0.320000      -0.151370  2
|1867>   f 1
|1868>    1      1.000000000    0.000000000 2
|1869> end
|1870> Ti>    4.00000000000   -0.00000306899    5.92218606960  -11.03942897843
|1871> NewECP
|1872> N_core 0
|1873>   lmax f
|1874>   s 2
|1875>    1      0.860000       9.191690  2
|1876>    2      0.172000       0.008301  2
|1877>   p 2
|1878>    1      0.860000      17.997720  2
|1879>    2      0.172000      -0.032600  2
|1880>   d 2
|1881>    1      1.600000      -9.504310  2
|1882>    2      0.320000      -0.151370  2
|1883>   f 1
|1884>    1      1.000000000    0.000000000 2
|1885> end
|1886> Ti>    4.00000000000   -0.00000306899   -5.92218807425  -11.03942897843
|1887> NewECP
|1888> N_core 0
|1889>   lmax f
|1890>   s 2
|1891>    1      0.860000       9.191690  2
|1892>    2      0.172000       0.008301  2
|1893>   p 2
|1894>    1      0.860000      17.997720  2
|1895>    2      0.172000      -0.032600  2
|1896>   d 2
|1897>    1      1.600000      -9.504310  2
|1898>    2      0.320000      -0.151370  2
|1899>   f 1
|1900>    1      1.000000000    0.000000000 2
|1901> end
|1902> Ti>    4.00000000000   -6.50804236645    7.40273283758   -7.78540932970
|1903> NewECP
|1904> N_core 0
|1905>   lmax f
|1906>   s 2
|1907>    1      0.860000       9.191690  2
|1908>    2      0.172000       0.008301  2
|1909>   p 2
|1910>    1      0.860000      17.997720  2
|1911>    2      0.172000      -0.032600  2
|1912>   d 2
|1913>    1      1.600000      -9.504310  2
|1914>    2      0.320000      -0.151370  2
|1915>   f 1
|1916>    1      1.000000000    0.000000000 2
|1917> end
|1918> Ti>    4.00000000000    6.50803622848    7.40273283758   -7.78540932970
|1919> NewECP
|1920> N_core 0
|1921>   lmax f
|1922>   s 2
|1923>    1      0.860000       9.191690  2
|1924>    2      0.172000       0.008301  2
|1925>   p 2
|1926>    1      0.860000      17.997720  2
|1927>    2      0.172000      -0.032600  2
|1928>   d 2
|1929>    1      1.600000      -9.504310  2
|1930>    2      0.320000      -0.151370  2
|1931>   f 1
|1932>    1      1.000000000    0.000000000 2
|1933> end
|1934> Ti>    4.00000000000    6.50803622848   -7.40273484223   -7.78540932970
|1935> NewECP
|1936> N_core 0
|1937>   lmax f
|1938>   s 2
|1939>    1      0.860000       9.191690  2
|1940>    2      0.172000       0.008301  2
|1941>   p 2
|1942>    1      0.860000      17.997720  2
|1943>    2      0.172000      -0.032600  2
|1944>   d 2
|1945>    1      1.600000      -9.504310  2
|1946>    2      0.320000      -0.151370  2
|1947>   f 1
|1948>    1      1.000000000    0.000000000 2
|1949> end
|1950> Ti>    4.00000000000   -6.50804236645   -7.40273484223   -7.78540932970
|1951> NewECP
|1952> N_core 0
|1953>   lmax f
|1954>   s 2
|1955>    1      0.860000       9.191690  2
|1956>    2      0.172000       0.008301  2
|1957>   p 2
|1958>    1      0.860000      17.997720  2
|1959>    2      0.172000      -0.032600  2
|1960>   d 2
|1961>    1      1.600000      -9.504310  2
|1962>    2      0.320000      -0.151370  2
|1963>   f 1
|1964>    1      1.000000000    0.000000000 2
|1965> end
|1966> Ti>    4.00000000000   -0.00005220374   11.84437343371   -4.41288396045
|1967> NewECP
|1968> N_core 0
|1969>   lmax f
|1970>   s 2
|1971>    1      0.860000       9.191690  2
|1972>    2      0.172000       0.008301  2
|1973>   p 2
|1974>    1      0.860000      17.997720  2
|1975>    2      0.172000      -0.032600  2
|1976>   d 2
|1977>    1      1.600000      -9.504310  2
|1978>    2      0.320000      -0.151370  2
|1979>   f 1
|1980>    1      1.000000000    0.000000000 2
|1981> end
|1982> Ti>    4.00000000000   -0.00005220374  -11.84437485399   -4.41288396045
|1983> NewECP
|1984> N_core 0
|1985>   lmax f
|1986>   s 2
|1987>    1      0.860000       9.191690  2
|1988>    2      0.172000       0.008301  2
|1989>   p 2
|1990>    1      0.860000      17.997720  2
|1991>    2      0.172000      -0.032600  2
|1992>   d 2
|1993>    1      1.600000      -9.504310  2
|1994>    2      0.320000      -0.151370  2
|1995>   f 1
|1996>    1      1.000000000    0.000000000 2
|1997> end
|1998> Ti>    4.00000000000    6.50803622848   -0.00000100232  -11.03942897843
|1999> NewECP
|2000> N_core 0
|2001>   lmax f
|2002>   s 2
|2003>    1      0.860000       9.191690  2
|2004>    2      0.172000       0.008301  2
|2005>   p 2
|2006>    1      0.860000      17.997720  2
|2007>    2      0.172000      -0.032600  2
|2008>   d 2
|2009>    1      1.600000      -9.504310  2
|2010>    2      0.320000      -0.151370  2
|2011>   f 1
|2012>    1      1.000000000    0.000000000 2
|2013> end
|2014> Ti>    4.00000000000   -6.50804236645   -0.00000100232  -11.03942897843
|2015> NewECP
|2016> N_core 0
|2017>   lmax f
|2018>   s 2
|2019>    1      0.860000       9.191690  2
|2020>    2      0.172000       0.008301  2
|2021>   p 2
|2022>    1      0.860000      17.997720  2
|2023>    2      0.172000      -0.032600  2
|2024>   d 2
|2025>    1      1.600000      -9.504310  2
|2026>    2      0.320000      -0.151370  2
|2027>   f 1
|2028>    1      1.000000000    0.000000000 2
|2029> end
|2030> Ti>    4.00000000000   -9.76206201519    2.96109253364   -7.78540932970
|2031> NewECP
|2032> N_core 0
|2033>   lmax f
|2034>   s 2
|2035>    1      0.860000       9.191690  2
|2036>    2      0.172000       0.008301  2
|2037>   p 2
|2038>    1      0.860000      17.997720  2
|2039>    2      0.172000      -0.032600  2
|2040>   d 2
|2041>    1      1.600000      -9.504310  2
|2042>    2      0.320000      -0.151370  2
|2043>   f 1
|2044>    1      1.000000000    0.000000000 2
|2045> end
|2046> Ti>    4.00000000000    9.76205587721    2.96109253364   -7.78540932970
|2047> NewECP
|2048> N_core 0
|2049>   lmax f
|2050>   s 2
|2051>    1      0.860000       9.191690  2
|2052>    2      0.172000       0.008301  2
|2053>   p 2
|2054>    1      0.860000      17.997720  2
|2055>    2      0.172000      -0.032600  2
|2056>   d 2
|2057>    1      1.600000      -9.504310  2
|2058>    2      0.320000      -0.151370  2
|2059>   f 1
|2060>    1      1.000000000    0.000000000 2
|2061> end
|2062> Ti>    4.00000000000    9.76205587721   -2.96109453828   -7.78540932970
|2063> NewECP
|2064> N_core 0
|2065>   lmax f
|2066>   s 2
|2067>    1      0.860000       9.191690  2
|2068>    2      0.172000       0.008301  2
|2069>   p 2
|2070>    1      0.860000      17.997720  2
|2071>    2      0.172000      -0.032600  2
|2072>   d 2
|2073>    1      1.600000      -9.504310  2
|2074>    2      0.320000      -0.151370  2
|2075>   f 1
|2076>    1      1.000000000    0.000000000 2
|2077> end
|2078> Ti>    4.00000000000   -9.76206201519   -2.96109453828   -7.78540932970
|2079> NewECP
|2080> N_core 0
|2081>   lmax f
|2082>   s 2
|2083>    1      0.860000       9.191690  2
|2084>    2      0.172000       0.008301  2
|2085>   p 2
|2086>    1      0.860000      17.997720  2
|2087>    2      0.172000      -0.032600  2
|2088>   d 2
|2089>    1      1.600000      -9.504310  2
|2090>    2      0.320000      -0.151370  2
|2091>   f 1
|2092>    1      1.000000000    0.000000000 2
|2093> end
|2094> Ti>    4.00000000000   -0.00000306899   10.36382637355   -7.78540932970
|2095> NewECP
|2096> N_core 0
|2097>   lmax f
|2098>   s 2
|2099>    1      0.860000       9.191690  2
|2100>    2      0.172000       0.008301  2
|2101>   p 2
|2102>    1      0.860000      17.997720  2
|2103>    2      0.172000      -0.032600  2
|2104>   d 2
|2105>    1      1.600000      -9.504310  2
|2106>    2      0.320000      -0.151370  2
|2107>   f 1
|2108>    1      1.000000000    0.000000000 2
|2109> end
|2110> Ti>    4.00000000000   -0.00000306899  -10.36382837819   -7.78540932970
|2111> NewECP
|2112> N_core 0
|2113>   lmax f
|2114>   s 2
|2115>    1      0.860000       9.191690  2
[...]
375 Q      0.0000     4.0000     4.0000     0.0000     0.0000     0.0000
376 Q      0.0000     4.0000     4.0000     0.0000     0.0000     0.0000
377 Q      0.0000     4.0000     4.0000     0.0000     0.0000     0.0000
378 Q      0.0000     4.0000     4.0000     0.0000     0.0000     0.0000
379 Q      0.0000     4.0000     4.0000     0.0000     0.0000     0.0000
380 Q      0.0000     4.0000     4.0000     0.0000     0.0000     0.0000
381 Q      0.0000     4.0000     4.0000     0.0000     0.0000     0.0000
382 Q      0.0000     4.0000     4.0000     0.0000     0.0000     0.0000
383 Q      0.0000     4.0000     4.0000     0.0000     0.0000     0.0000
384 Q      0.0000     4.0000     4.0000     0.0000     0.0000     0.0000
385 Q      0.0000     4.0000     4.0000     0.0000     0.0000     0.0000
386 Q      0.0000     4.0000     4.0000     0.0000     0.0000     0.0000
387 Q      0.0000     4.0000     4.0000     0.0000     0.0000     0.0000
388 Q      0.0000     4.0000     4.0000     0.0000     0.0000     0.0000
389 Q      0.0000     4.0000     4.0000     0.0000     0.0000     0.0000
390 Q      0.0000     4.0000     4.0000     0.0000     0.0000     0.0000
391 Q      0.0000     4.0000     4.0000     0.0000     0.0000     0.0000
392 Q      0.0000     4.0000     4.0000     0.0000     0.0000     0.0000
393 Q      0.0000     4.0000     4.0000     0.0000     0.0000     0.0000
394 Q      0.0000     4.0000     4.0000     0.0000     0.0000     0.0000
395 Q      0.0000     4.0000     4.0000     0.0000     0.0000     0.0000
396 Q      0.0000     4.0000     4.0000     0.0000     0.0000     0.0000
397 Q      0.0000     4.0000     4.0000     0.0000     0.0000     0.0000
398 Q      0.0000     4.0000     4.0000     0.0000     0.0000     0.0000
399 Q      0.0000     4.0000     4.0000     0.0000     0.0000     0.0000
400 Q      0.0000     4.0000     4.0000     0.0000     0.0000     0.0000
401 Q      0.0000     4.0000     4.0000     0.0000     0.0000     0.0000
402 Q      0.0000     4.0000     4.0000     0.0000     0.0000     0.0000
403 Q      0.0000     4.0000     4.0000     0.0000     0.0000     0.0000
404 Q      0.0000     4.0000     4.0000     0.0000     0.0000     0.0000
405 Q      0.0000     4.0000     4.0000     0.0000     0.0000     0.0000
406 Q      0.0000     4.0000     4.0000     0.0000     0.0000     0.0000
407 Q      0.0000     4.0000     4.0000     0.0000     0.0000     0.0000
408 Q      0.0000     4.0000     4.0000     0.0000     0.0000     0.0000
409 Q      0.0000     4.0000     4.0000     0.0000     0.0000     0.0000
410 Q      0.0000     4.0000     4.0000     0.0000     0.0000     0.0000
411 Q      0.0000     4.0000     4.0000     0.0000     0.0000     0.0000
412 Q      0.0000     4.0000     4.0000     0.0000     0.0000     0.0000
413 Q      0.0000     4.0000     4.0000     0.0000     0.0000     0.0000
414 Q      0.0000     4.0000     4.0000     0.0000     0.0000     0.0000
415 Q      0.0000     4.0000     4.0000     0.0000     0.0000     0.0000
416 Q      0.0000     4.0000     4.0000     0.0000     0.0000     0.0000
417 Q      0.0000     4.0000     4.0000     0.0000     0.0000     0.0000
418 Q      0.0000     4.0000     4.0000     0.0000     0.0000     0.0000
419 Q      0.0000     4.0000     4.0000     0.0000     0.0000     0.0000
420 Q      0.0000     4.0000     4.0000     0.0000     0.0000     0.0000
421 Q      0.0000     4.0000     4.0000     0.0000     0.0000     0.0000
422 Q      0.0000     4.0000     4.0000     0.0000     0.0000     0.0000
423 Q      0.0000     4.0000     4.0000     0.0000     0.0000     0.0000
424 Q      0.0000     4.0000     4.0000     0.0000     0.0000     0.0000
425 Q      0.0000     4.0000     4.0000     0.0000     0.0000     0.0000
426 Q      0.0000     4.0000     4.0000     0.0000     0.0000     0.0000
427 Q      0.0000     4.0000     4.0000     0.0000     0.0000     0.0000
428 Q      0.0000     4.0000     4.0000     0.0000     0.0000     0.0000
429 Q      0.0000     4.0000     4.0000     0.0000     0.0000     0.0000
430 Q      0.0000     4.0000     4.0000     0.0000     0.0000     0.0000
431 Q      0.0000     4.0000     4.0000     0.0000     0.0000     0.0000
432 Q      0.0000     4.0000     4.0000     0.0000     0.0000     0.0000
433 Q      0.0000     4.0000     4.0000     0.0000     0.0000     0.0000
434 Q      0.0000     4.0000     4.0000     0.0000     0.0000     0.0000
435 Q      0.0000     4.0000     4.0000     0.0000     0.0000     0.0000
436 Q      0.0000     4.0000     4.0000     0.0000     0.0000     0.0000
437 Q      0.0000     4.0000     4.0000     0.0000     0.0000     0.0000
438 Q      0.0000     4.0000     4.0000     0.0000     0.0000     0.0000
439 Q      0.0000     4.0000     4.0000     0.0000     0.0000     0.0000
440 Q      0.0000     4.0000     4.0000     0.0000     0.0000     0.0000
441 Q      0.0000     4.0000     4.0000     0.0000     0.0000     0.0000
442 Q      0.0000     4.0000     4.0000     0.0000     0.0000     0.0000
443 Q      0.0000     4.0000     4.0000     0.0000     0.0000     0.0000
444 Q      0.0000     4.0000     4.0000     0.0000     0.0000     0.0000
445 Q      0.0000     4.0000     4.0000     0.0000     0.0000     0.0000
446 Q      0.0000     4.0000     4.0000     0.0000     0.0000     0.0000
447 Q      0.0000     4.0000     4.0000     0.0000     0.0000     0.0000
448 Q      0.0000     4.0000     4.0000     0.0000     0.0000     0.0000
449 Q      0.0000     4.0000     4.0000     0.0000     0.0000     0.0000
450 Q      0.0000     4.0000     4.0000     0.0000     0.0000     0.0000
451 Q      0.0000     4.0000     4.0000     0.0000     0.0000     0.0000
452 Q      0.0000     4.0000     4.0000     0.0000     0.0000     0.0000
453 Q      0.0000     4.0000     4.0000     0.0000     0.0000     0.0000
454 Q      0.0000     4.0000     4.0000     0.0000     0.0000     0.0000
455 Q      0.0000     4.0000     4.0000     0.0000     0.0000     0.0000
456 Q      0.0000     4.0000     4.0000     0.0000     0.0000     0.0000
457 Q      0.0000     4.0000     4.0000     0.0000     0.0000     0.0000
458 Q      0.0000     4.0000     4.0000     0.0000     0.0000     0.0000
459 Q      0.0000     4.0000     4.0000     0.0000     0.0000     0.0000
460 Q      0.0000     4.0000     4.0000     0.0000     0.0000     0.0000
461 Q      0.0000     4.0000     4.0000     0.0000     0.0000     0.0000
462 Q      0.0000     4.0000     4.0000     0.0000     0.0000     0.0000
463 Q      0.0000     4.0000     4.0000     0.0000     0.0000     0.0000
464 Q      0.0000     4.0000     4.0000     0.0000     0.0000     0.0000
465 Q      0.0000     4.0000     4.0000     0.0000     0.0000     0.0000
466 Q      0.0000     4.0000     4.0000     0.0000     0.0000     0.0000
467 Q      0.0000     4.0000     4.0000     0.0000     0.0000     0.0000
468 Q      0.0000     4.0000     4.0000     0.0000     0.0000     0.0000
469 Q      0.0000     4.0000     4.0000     0.0000     0.0000     0.0000
470 Q      0.0000     4.0000     4.0000     0.0000     0.0000     0.0000
471 Q      0.0000     4.0000     4.0000     0.0000     0.0000     0.0000
472 Q      0.0000     4.0000     4.0000     0.0000     0.0000     0.0000
473 Q      0.0000     4.0000     4.0000     0.0000     0.0000     0.0000
474 Q      0.0000     4.0000     4.0000     0.0000     0.0000     0.0000
475 Q      0.0000     4.0000     4.0000     0.0000     0.0000     0.0000
476 Q      0.0000     4.0000     4.0000     0.0000     0.0000     0.0000
477 Q      0.0000     4.0000     4.0000     0.0000     0.0000     0.0000
478 Q      0.0000     4.0000     4.0000     0.0000     0.0000     0.0000
479 Q      0.0000     4.0000     4.0000     0.0000     0.0000     0.0000
480 Q      0.0000     4.0000     4.0000     0.0000     0.0000     0.0000
481 Q      0.0000     4.0000     4.0000     0.0000     0.0000     0.0000
482 Q      0.0000     4.0000     4.0000     0.0000     0.0000     0.0000
483 Q      0.0000     4.0000     4.0000     0.0000     0.0000     0.0000
484 Q      0.0000     4.0000     4.0000     0.0000     0.0000     0.0000
485 Q      0.0000     4.0000     4.0000     0.0000     0.0000     0.0000
486 Q      0.0000     4.0000     4.0000     0.0000     0.0000     0.0000
487 Q      0.0000     4.0000     4.0000     0.0000     0.0000     0.0000
488 Q      0.0000     4.0000     4.0000     0.0000     0.0000     0.0000
489 Q      0.0000     4.0000     4.0000     0.0000     0.0000     0.0000
490 Q      0.0000     4.0000     4.0000     0.0000     0.0000     0.0000
491 Q      0.0000     4.0000     4.0000     0.0000     0.0000     0.0000
492 Q      0.0000     4.0000     4.0000     0.0000     0.0000     0.0000
493 Q      0.0000     4.0000     4.0000     0.0000     0.0000     0.0000
494 Q      0.0000     4.0000     4.0000     0.0000     0.0000     0.0000
495 Q      0.0000     4.0000     4.0000     0.0000     0.0000     0.0000
496 Q      0.0000     4.0000     4.0000     0.0000     0.0000     0.0000
497 Q      0.0000     4.0000     4.0000     0.0000     0.0000     0.0000
498 Q      0.0000     4.0000     4.0000     0.0000     0.0000     0.0000
499 Q      0.0000     4.0000     4.0000     0.0000     0.0000     0.0000
500 Q      0.0000     4.0000     4.0000     0.0000     0.0000     0.0000
501 Q      0.0000     4.0000     4.0000     0.0000     0.0000     0.0000
502 Q      0.0000     4.0000     4.0000     0.0000     0.0000     0.0000
503 Q      0.0000     4.0000     4.0000     0.0000     0.0000     0.0000
504 Q      0.0000     4.0000     4.0000     0.0000     0.0000     0.0000
505 Q      0.0000     4.0000     4.0000     0.0000     0.0000     0.0000
506 Q      0.0000     4.0000     4.0000     0.0000     0.0000     0.0000
507 Q      0.0000     4.0000     4.0000     0.0000     0.0000     0.0000
508 Q      0.0000     4.0000     4.0000     0.0000     0.0000     0.0000
509 Q      0.0000     4.0000     4.0000     0.0000     0.0000     0.0000
510 Q      0.0000     4.0000     4.0000     0.0000     0.0000     0.0000
511 Q      0.0000     4.0000     4.0000     0.0000     0.0000     0.0000
512 Q      0.0000     4.0000     4.0000     0.0000     0.0000     0.0000
513 Q      0.0000     4.0000     4.0000     0.0000     0.0000     0.0000
514 Q      0.0000     4.0000     4.0000     0.0000     0.0000     0.0000
515 Q      0.0000     4.0000     4.0000     0.0000     0.0000     0.0000
516 Q      0.0000     4.0000     4.0000     0.0000     0.0000     0.0000
517 Q      0.0000     4.0000     4.0000     0.0000     0.0000     0.0000
518 Q      0.0000     4.0000     4.0000     0.0000     0.0000     0.0000
519 Q      0.0000     4.0000     4.0000     0.0000     0.0000     0.0000
520 Q      0.0000     4.0000     4.0000     0.0000     0.0000     0.0000
521 Q      0.0000     4.0000     4.0000     0.0000     0.0000     0.0000
522 Q      0.0000     4.0000     4.0000     0.0000     0.0000     0.0000
523 Q      0.0000     4.0000     4.0000     0.0000     0.0000     0.0000
524 Q      0.0000     4.0000     4.0000     0.0000     0.0000     0.0000
525 Q      0.0000     4.0000     4.0000     0.0000     0.0000     0.0000
526 Q      0.0000     4.0000     4.0000     0.0000     0.0000     0.0000
527 Q      0.0000     4.0000     4.0000     0.0000     0.0000     0.0000
528 Q      0.0000     4.0000     4.0000     0.0000     0.0000     0.0000

  Mayer bond orders larger than 0.100000
B(  1-Ti,  2-Ti) :   0.5362 B(  1-Ti,  3-O ) :   0.5893 B(  1-Ti,  4-O ) :   0.5983 
B(  1-Ti,  5-O ) :   0.5983 B(  1-Ti,  8-O ) :   1.2329 B(  1-Ti, 12-O ) :   0.6396 
B(  1-Ti, 15-Ti) :   0.1097 B(  2-Ti,  3-O ) :   0.5893 B(  2-Ti,  6-O ) :   0.5983 
B(  2-Ti,  7-O ) :   0.5983 B(  2-Ti,  9-O ) :   1.2329 B(  2-Ti, 13-O ) :   0.6396 
B(  2-Ti, 16-Ti) :   0.1097 B(  3-O , 14-Ti) :   0.9321 B(  4-O , 11-Ti) :   0.7149 
B(  4-O , 19-Ti) :   0.7405 B(  5-O , 10-Ti) :   0.7149 B(  5-O , 20-Ti) :   0.7405 
B(  6-O , 10-Ti) :   0.7149 B(  6-O , 21-Ti) :   0.7405 B(  7-O , 11-Ti) :   0.7149 
B(  7-O , 22-Ti) :   0.7405 B(  8-O , 15-Ti) :   0.9928 B(  9-O , 16-Ti) :   0.9928 
B( 10-Ti, 17-O ) :   1.0123 B( 10-Ti, 24-O ) :   0.7634 B( 10-Ti, 25-O ) :   0.7634 
B( 11-Ti, 18-O ) :   1.0122 B( 11-Ti, 23-O ) :   0.7634 B( 11-Ti, 26-O ) :   0.7634 
B( 12-O , 15-Ti) :   0.5672 B( 12-O , 35-Ti) :   0.9376 B( 13-O , 16-Ti) :   0.5672 
B( 13-O , 36-Ti) :   0.9376 B( 14-Ti, 27-O ) :   0.6549 B( 14-Ti, 28-O ) :   0.6547 
B( 14-Ti, 29-O ) :   0.6547 B( 14-Ti, 30-O ) :   0.6549 B( 14-Ti, 59-O ) :   0.5519 
B( 14-Ti, 80-O ) :   0.1025 B( 14-Ti, 81-O ) :   0.1025 B( 15-Ti, 31-O ) :   0.5255 
B( 15-Ti, 32-O ) :   0.5255 B( 15-Ti, 45-O ) :   1.3733 B( 15-Ti, 51-O ) :   0.6104 
B( 16-Ti, 33-O ) :   0.5255 B( 16-Ti, 34-O ) :   0.5255 B( 16-Ti, 46-O ) :   1.3733 
B( 16-Ti, 52-O ) :   0.6104 B( 17-O , 41-Ti) :   0.5623 B( 17-O , 42-Ti) :   0.5623 
B( 18-O , 43-Ti) :   0.5623 B( 18-O , 44-Ti) :   0.5623 B( 19-Ti, 23-O ) :   0.7904 
B( 19-Ti, 31-O ) :   0.7306 B( 19-Ti, 37-O ) :   1.0323 B( 19-Ti, 47-O ) :   0.6978 
B( 20-Ti, 24-O ) :   0.7904 B( 20-Ti, 32-O ) :   0.7306 B( 20-Ti, 38-O ) :   1.0323 
B( 20-Ti, 48-O ) :   0.6978 B( 21-Ti, 25-O ) :   0.7904 B( 21-Ti, 33-O ) :   0.7306 
B( 21-Ti, 39-O ) :   1.0323 B( 21-Ti, 49-O ) :   0.6978 B( 22-Ti, 26-O ) :   0.7904 
B( 22-Ti, 34-O ) :   0.7306 B( 22-Ti, 40-O ) :   1.0323 B( 22-Ti, 50-O ) :   0.6978 
B( 23-O , 62-Ti) :   0.5105 B( 24-O , 63-Ti) :   0.5105 B( 25-O , 64-Ti) :   0.5105 
B( 26-O , 65-Ti) :   0.5105 B( 27-O , 35-Ti) :   0.6646 B( 27-O , 43-Ti) :   0.8054 
B( 28-O , 35-Ti) :   0.6644 B( 28-O , 41-Ti) :   0.8057 B( 29-O , 36-Ti) :   0.6644 
B( 29-O , 42-Ti) :   0.8057 B( 30-O , 36-Ti) :   0.6646 B( 30-O , 44-Ti) :   0.8054 
B( 31-O , 66-Ti) :   0.8257 B( 32-O , 67-Ti) :   0.8257 B( 33-O , 68-Ti) :   0.8257 
B( 34-O , 69-Ti) :   0.8257 B( 35-Ti, 53-O ) :   0.6507 B( 35-Ti, 54-O ) :   0.6505 
B( 35-Ti, 80-O ) :   0.5801 B( 36-Ti, 55-O ) :   0.6505 B( 36-Ti, 56-O ) :   0.6507 
B( 36-Ti, 81-O ) :   0.5801 B( 37-O , 43-Ti) :   0.5518 B( 37-O , 84-Ti) :   0.5616 
B( 38-O , 41-Ti) :   0.5518 B( 38-O , 82-Ti) :   0.5615 B( 39-O , 42-Ti) :   0.5518 
B( 39-O , 83-Ti) :   0.5615 B( 40-O , 44-Ti) :   0.5518 B( 40-O , 85-Ti) :   0.5616 
B( 41-Ti, 60-O ) :   0.7665 B( 41-Ti, 73-O ) :   0.7497 B( 41-Ti, 87-O ) :   0.7770 
B( 42-Ti, 60-O ) :   0.7665 B( 42-Ti, 74-O ) :   0.7497 B( 42-Ti, 88-O ) :   0.7770 
B( 43-Ti, 61-O ) :   0.7665 B( 43-Ti, 72-O ) :   0.7499 B( 43-Ti, 86-O ) :   0.7770 
B( 44-Ti, 61-O ) :   0.7665 B( 44-Ti, 75-O ) :   0.7499 B( 44-Ti, 89-O ) :   0.7770 
B( 47-O , 66-Ti) :   0.8046 B( 48-O , 67-Ti) :   0.8046 B( 49-O , 68-Ti) :   0.8046 
B( 50-O , 69-Ti) :   0.8046 B( 51-O , 90-Ti) :   0.9229 B( 52-O , 91-Ti) :   0.9229 
B( 53-O , 84-Ti) :   0.8132 B( 53-O , 90-Ti) :   0.6677 B( 54-O , 82-Ti) :   0.8135 
B( 54-O , 90-Ti) :   0.6675 B( 55-O , 83-Ti) :   0.8135 B( 55-O , 91-Ti) :   0.6675 
B( 56-O , 85-Ti) :   0.8132 B( 56-O , 91-Ti) :   0.6677 B( 57-O , 62-Ti) :   1.0653 
B( 57-O , 65-Ti) :   1.0653 B( 58-O , 63-Ti) :   1.0653 B( 58-O , 64-Ti) :   1.0653 
B( 62-Ti, 65-Ti) :   0.1097 B( 62-Ti, 71-O ) :   0.6084 B( 62-Ti, 76-O ) :   1.2938 
B( 62-Ti, 96-O ) :   0.6090 B( 62-Ti,112-O ) :   0.5205 B( 63-Ti, 64-Ti) :   0.1097 
B( 63-Ti, 70-O ) :   0.6084 B( 63-Ti, 77-O ) :   1.2938 B( 63-Ti, 97-O ) :   0.6090 
B( 63-Ti,113-O ) :   0.5205 B( 64-Ti, 70-O ) :   0.6084 B( 64-Ti, 78-O ) :   1.2938 
B( 64-Ti, 98-O ) :   0.6090 B( 64-Ti,114-O ) :   0.5205 B( 65-Ti, 71-O ) :   0.6084 
B( 65-Ti, 79-O ) :   1.2938 B( 65-Ti, 99-O ) :   0.6090 B( 65-Ti,115-O ) :   0.5205 
B( 66-Ti, 92-O ) :   1.0820 B( 66-Ti,100-O ) :   0.7396 B( 66-Ti,108-O ) :   0.8243 
B( 67-Ti, 93-O ) :   1.0820 B( 67-Ti,101-O ) :   0.7396 B( 67-Ti,109-O ) :   0.8244 
B( 68-Ti, 94-O ) :   1.0820 B( 68-Ti,102-O ) :   0.7396 B( 68-Ti,110-O ) :   0.8244 
B( 69-Ti, 95-O ) :   1.0820 B( 69-Ti,103-O ) :   0.7396 B( 69-Ti,111-O ) :   0.8243 
B( 82-Ti, 87-O ) :   0.7686 B( 82-Ti, 93-O ) :   0.5178 B( 82-Ti,105-O ) :   0.7699 
B( 82-Ti,123-O ) :   0.8652 B( 83-Ti, 88-O ) :   0.7686 B( 83-Ti, 94-O ) :   0.5178 
B( 83-Ti,106-O ) :   0.7699 B( 83-Ti,124-O ) :   0.8652 B( 84-Ti, 86-O ) :   0.7686 
B( 84-Ti, 92-O ) :   0.5178 B( 84-Ti,104-O ) :   0.7701 B( 84-Ti,122-O ) :   0.8652 
B( 85-Ti, 89-O ) :   0.7686 B( 85-Ti, 95-O ) :   0.5178 B( 85-Ti,107-O ) :   0.7701 
B( 85-Ti,125-O ) :   0.8652 B( 90-Ti,116-O ) :   0.7264 B( 90-Ti,117-O ) :   0.7263 
B( 90-Ti,120-O ) :   0.6603 B( 91-Ti,118-O ) :   0.7263 B( 91-Ti,119-O ) :   0.7264 
B( 91-Ti,121-O ) :   0.6603 

-------
TIMINGS
-------

Total SCF time: 0 days 0 hours 48 min 37 sec 

Total time                  ....    2917.817 sec
Sum of individual times     ....    2780.067 sec  ( 95.3%)

Fock matrix formation       ....    1846.742 sec  ( 63.3%)
  Split-RI-J                ....     962.589 sec  ( 52.1% of F)
  XC integration            ....     302.801 sec  ( 16.4% of F)
    Basis function eval.    ....      39.715 sec  ( 13.1% of XC)
    Density eval.           ....     124.453 sec  ( 41.1% of XC)
    XC-Functional eval.     ....       2.825 sec  (  0.9% of XC)
    XC-Potential eval.      ....      86.497 sec  ( 28.6% of XC)
Diagonalization             ....      91.307 sec  (  3.1%)
Density matrix formation    ....      96.560 sec  (  3.3%)
Population analysis         ....       6.613 sec  (  0.2%)
Initial guess               ....       9.808 sec  (  0.3%)
Orbital Transformation      ....     619.250 sec  ( 21.2%)
Orbital Orthonormalization  ....       0.000 sec  (  0.0%)
DIIS solution               ....      99.213 sec  (  3.4%)
Grid generation             ....      10.430 sec  (  0.4%)

Maximum memory used throughout the entire SCF-calculation: 745.3 MB

-------------------------   --------------------
FINAL SINGLE POINT ENERGY    -82337.620365429146
-------------------------   --------------------


                            ***************************************
                            *     ORCA property calculations      *
                            ***************************************

                                    ---------------------
                                    Active property flags
                                    ---------------------
   (+) Dipole Moment


------------------------------------------------------------------------------
                       ORCA ELECTRIC PROPERTIES CALCULATION
------------------------------------------------------------------------------

Dipole Moment Calculation                       ... on
Quadrupole Moment Calculation                   ... off
Polarizability Calculation                      ... off
GBWName                                         ... orca.gbw
Electron density                                ... orca.scfp
The origin for moment calculation is the CENTER OF MASS  = (-0.000017, -0.000002 -5.228760)

-------------
DIPOLE MOMENT
-------------
                                X             Y             Z
Electronic contribution:     -0.01108       0.00009      79.37102
Nuclear contribution   :     -0.01572       0.00012  -12090.12329
                        -----------------------------------------
Total Dipole Moment    :     -0.02680       0.00021  -12010.75226
                        -----------------------------------------
Magnitude (a.u.)       :  12010.75226
Magnitude (Debye)      :  30528.90609



--------------------
Rotational spectrum 
--------------------
 
Rotational constants in cm-1:     0.000325     0.000298     0.000191 
Rotational constants in MHz :     9.751263     8.945652     5.716923 

 Dipole components along the rotational axes: 
x,y,z [a.u.] :    -0.000039    -0.052608 -12010.752265 
x,y,z [Debye]:    -0.000099    -0.133718 -30528.906085 

 

Timings for individual modules:

Sum of individual times         ...     3344.261 sec (=  55.738 min)
GTO integral calculation        ...      424.472 sec (=   7.075 min)  12.7 %
SCF iterations                  ...     2919.789 sec (=  48.663 min)  87.3 %
                             ****ORCA TERMINATED NORMALLY****
TOTAL RUN TIME: 0 days 0 hours 55 minutes 52 seconds 579 msec
