
                                 *****************
                                 * O   R   C   A *
                                 *****************

                                            #,                                       
                                            ###                                      
                                            ####                                     
                                            #####                                    
                                            ######                                   
                                           ########,                                 
                                     ,,################,,,,,                         
                               ,,#################################,,                 
                          ,,##########################################,,             
                       ,#########################################, ''#####,          
                    ,#############################################,,   '####,        
                  ,##################################################,,,,####,       
                ,###########''''           ''''###############################       
              ,#####''   ,,,,##########,,,,          '''####'''          '####       
            ,##' ,,,,###########################,,,                        '##       
           ' ,,###''''                  '''############,,,                           
         ,,##''                                '''############,,,,        ,,,,,,###''
      ,#''                                            '''#######################'''  
     '                                                          ''''####''''         
             ,#######,   #######,   ,#######,      ##                                
            ,#'     '#,  ##    ##  ,#'     '#,    #''#        ######   ,####,        
            ##       ##  ##   ,#'  ##            #'  '#       #        #'  '#        
            ##       ##  #######   ##           ,######,      #####,   #    #        
            '#,     ,#'  ##    ##  '#,     ,#' ,#      #,         ##   #,  ,#        
             '#######'   ##     ##  '#######'  #'      '#     #####' # '####'        



                  #######################################################
                  #                        -***-                        #
                  #          Department of theory and spectroscopy      #
                  #    Directorship and core code : Frank Neese         #
                  #        Max Planck Institute fuer Kohlenforschung    #
                  #                Kaiser Wilhelm Platz 1               #
                  #                 D-45470 Muelheim/Ruhr               #
                  #                      Germany                        #
                  #                                                     #
                  #                  All rights reserved                #
                  #                        -***-                        #
                  #######################################################


                         Program Version 5.0.1 -  RELEASE  -


 With contributions from (in alphabetic order):
   Daniel Aravena         : Magnetic Suceptibility
   Michael Atanasov       : Ab Initio Ligand Field Theory (pilot matlab implementation)
   Alexander A. Auer      : GIAO ZORA, VPT2 properties, NMR spectrum
   Ute Becker             : Parallelization
   Giovanni Bistoni       : ED, misc. LED, open-shell LED, HFLD
   Martin Brehm           : Molecular dynamics
   Dmytro Bykov           : SCF Hessian
   Vijay G. Chilkuri      : MRCI spin determinant printing, contributions to CSF-ICE
   Dipayan Datta          : RHF DLPNO-CCSD density
   Achintya Kumar Dutta   : EOM-CC, STEOM-CC
   Dmitry Ganyushin       : Spin-Orbit,Spin-Spin,Magnetic field MRCI
   Miquel Garcia          : C-PCM and meta-GGA Hessian, CC/C-PCM, Gaussian charge scheme
   Yang Guo               : DLPNO-NEVPT2, F12-NEVPT2, CIM, IAO-localization
   Andreas Hansen         : Spin unrestricted coupled pair/coupled cluster methods
   Benjamin Helmich-Paris : MC-RPA, TRAH-SCF, COSX integrals
   Lee Huntington         : MR-EOM, pCC
   Robert Izsak           : Overlap fitted RIJCOSX, COSX-SCS-MP3, EOM
   Marcus Kettner         : VPT2
   Christian Kollmar      : KDIIS, OOCD, Brueckner-CCSD(T), CCSD density, CASPT2, CASPT2-K
   Simone Kossmann        : Meta GGA functionals, TD-DFT gradient, OOMP2, MP2 Hessian
   Martin Krupicka        : Initial AUTO-CI
   Lucas Lang             : DCDCAS
   Marvin Lechner         : AUTO-CI (C++ implementation), FIC-MRCC
   Dagmar Lenk            : GEPOL surface, SMD
   Dimitrios Liakos       : Extrapolation schemes; Compound Job, initial MDCI parallelization
   Dimitrios Manganas     : Further ROCIS development; embedding schemes
   Dimitrios Pantazis     : SARC Basis sets
   Anastasios Papadopoulos: AUTO-CI, single reference methods and gradients
   Taras Petrenko         : DFT Hessian,TD-DFT gradient, ASA, ECA, R-Raman, ABS, FL, XAS/XES, NRVS
   Peter Pinski           : DLPNO-MP2, DLPNO-MP2 Gradient
   Christoph Reimann      : Effective Core Potentials
   Marius Retegan         : Local ZFS, SOC
   Christoph Riplinger    : Optimizer, TS searches, QM/MM, DLPNO-CCSD(T), (RO)-DLPNO pert. Triples
   Tobias Risthaus        : Range-separated hybrids, TD-DFT gradient, RPA, STAB
   Michael Roemelt        : Original ROCIS implementation
   Masaaki Saitow         : Open-shell DLPNO-CCSD energy and density
   Barbara Sandhoefer     : DKH picture change effects
   Avijit Sen             : IP-ROCIS
   Kantharuban Sivalingam : CASSCF convergence, NEVPT2, FIC-MRCI
   Bernardo de Souza      : ESD, SOC TD-DFT
   Georgi Stoychev        : AutoAux, RI-MP2 NMR, DLPNO-MP2 response
   Willem Van den Heuvel  : Paramagnetic NMR
   Boris Wezisla          : Elementary symmetry handling
   Frank Wennmohs         : Technical directorship


 We gratefully acknowledge several colleagues who have allowed us to
 interface, adapt or use parts of their codes:
   Stefan Grimme, W. Hujo, H. Kruse, P. Pracht,  : VdW corrections, initial TS optimization,
                  C. Bannwarth, S. Ehlert          DFT functionals, gCP, sTDA/sTD-DF
   Ed Valeev, F. Pavosevic, A. Kumar             : LibInt (2-el integral package), F12 methods
   Garnet Chan, S. Sharma, J. Yang, R. Olivares  : DMRG
   Ulf Ekstrom                                   : XCFun DFT Library
   Mihaly Kallay                                 : mrcc  (arbitrary order and MRCC methods)
   Jiri Pittner, Ondrej Demel                    : Mk-CCSD
   Frank Weinhold                                : gennbo (NPA and NBO analysis)
   Christopher J. Cramer and Donald G. Truhlar   : smd solvation model
   Lars Goerigk                                  : TD-DFT with DH, B97 family of functionals
   V. Asgeirsson, H. Jonsson                     : NEB implementation
   FAccTs GmbH                                   : IRC, NEB, NEB-TS, DLPNO-Multilevel, CI-OPT
                                                   MM, QMMM, 2- and 3-layer-ONIOM, Crystal-QMMM,
                                                   LR-CPCM, SF, NACMEs, symmetry and pop. for TD-DFT,
                                                   nearIR, NL-DFT gradient (VV10), updates on ESD,
                                                   ML-optimized integration grids
   S Lehtola, MJT Oliveira, MAL Marques          : LibXC Library
   Liviu Ungur et al                             : ANISO software


 Your calculation uses the libint2 library for the computation of 2-el integrals
 For citations please refer to: http://libint.valeyev.net

 Your ORCA version has been built with support for libXC version: 5.1.0
 For citations please refer to: https://tddft.org/programs/libxc/

 This ORCA versions uses:
   CBLAS   interface :  Fast vector & matrix operations
   LAPACKE interface :  Fast linear algebra routines
   SCALAPACK package :  Parallel linear algebra routines
   Shared memory     :  Shared parallel matrices
   BLAS/LAPACK       :  OpenBLAS 0.3.15  USE64BITINT DYNAMIC_ARCH NO_AFFINITY SkylakeX SINGLE_THREADED
        Core in use  :  SkylakeX
   Copyright (c) 2011-2014, The OpenBLAS Project


SCAN-COORDS
================================================================================

----- Orbital basis set information -----
Your calculation utilizes the basis: def2-SVP
   F. Weigend and R. Ahlrichs, Phys. Chem. Chem. Phys. 7, 3297 (2005).

----- AuxJ basis set information -----
Your calculation utilizes the auxiliary basis: def2/J
   F. Weigend, Phys. Chem. Chem. Phys. 8, 1057 (2006).

================================================================================
                                        WARNINGS
                       Please study these warnings very carefully!
================================================================================

WARNING: Old DensityContainer found on disk!
         Will remove this file - 
         If you want to keep old densities, please start your calculation with a different basename. 

WARNING: The globally-selected AuxJ basis set is optimized for use with ECPs
         Make sure a suitable alternative is explicitly given all heavy elements (Z>36)

INFO   : the flag for use of the SHARK integral package has been found!

================================================================================
                                       INPUT FILE
================================================================================
NAME = orca.inp
|  1> ! NormalSCF SlowConv DIIS
|  2> %maxcore 18000
|  3> %pal
|  4>   nprocs 16
|  5> end
|  6> %pointcharges "orca.bq"
|  7> %method
|  8>   Method DFT
|  9>   Functional PBE
| 10>   RI on
| 11>   RunTyp Energy
| 12> end
| 13> %basis
| 14>   Basis "def2-SVP"
| 15>   Aux "def2/J"
| 16> end
| 17> %scf
| 18>   HFTyp rks
| 19>   Guess MORead
| 20> GuessMode FMatrix
| 21> MOInp "sto.gbw"
| 22>   AutoStart True
| 23>   SCFMode Direct
| 24>   MaxIter 1000
| 25>   sthresh 1e-6
| 26> AutoTRAHIter 120
| 27> end
| 28> %coords
| 29>   CTyp xyz
| 30>   Mult 1
| 31>   Units angs
| 32>   Charge 0
| 33>   coords
| 34> O                       0.00000000000    0.00000000000    0.00000000000
| 35> Ti                      0.00000000000    1.48054676798   -1.27209143018
| 36> Ti                      0.00000000000   -1.48054676798   -1.27209143018
| 37> Ti                      0.00000000000    0.00000000000    1.98192821856
| 38> O                      -0.00000000000    0.00000000000   -2.54418286035
| 39> O                      -1.27209143018    1.48054676798    1.98192821856
| 40> O                       1.27209143018    1.48054676798    1.98192821856
| 41> O                       1.27209143018   -1.48054676798    1.98192821856
| 42> O                      -1.27209143018   -1.48054676798    1.98192821856
| 43> O                      -1.98192821856    1.48054676798   -1.27209143018
| 44> O                       1.98192821856    1.48054676798   -1.27209143018
| 45> O                       1.98192821856   -1.48054676798   -1.27209143018
| 46> O                      -1.98192821856   -1.48054676798   -1.27209143018
| 47> O                       0.00000000000    2.96109353596    0.00000000000
| 48> O                       0.00000000000   -2.96109353596    0.00000000000
| 49> O                      -3.25401964873    0.00000000000    0.70983678838
| 50> O                       3.25401964873    0.00000000000    0.70983678838
| 51> Ti                     -3.25401964873    0.00000000000   -1.27209143018
| 52> Ti                      3.25401964873    0.00000000000   -1.27209143018
| 53> Ti                      0.00000000000    2.96109353596    1.98192821856
| 54> Ti                      0.00000000000   -2.96109353596    1.98192821856
| 55> O                      -0.00000000000    2.96109353596   -2.54418286035
| 56> O                      -0.00000000000   -2.96109353596   -2.54418286035
| 57> O                      -0.00000000000    0.00000000000    3.96385643712
| 58> Ti                     -3.25401964873    1.48054676798    1.98192821856
| 59> Ti                      3.25401964873    1.48054676798    1.98192821856
| 60> Ti                      3.25401964873   -1.48054676798    1.98192821856
| 61> Ti                     -3.25401964873   -1.48054676798    1.98192821856
| 62> O                      -3.25401964873    2.96109353596    0.70983678838
| 63> O                       3.25401964873    2.96109353596    0.70983678838
| 64> O                       3.25401964873   -2.96109353596    0.70983678838
| 65> O                      -3.25401964873   -2.96109353596    0.70983678838
| 66> Ti                      0.00000000000    0.00000000000   -4.52611107891
| 67> Ti                     -3.25401964873    2.96109353596   -1.27209143018
| 68> Ti                      3.25401964873    2.96109353596   -1.27209143018
| 69> Ti                      3.25401964873   -2.96109353596   -1.27209143018
| 70> Ti                     -3.25401964873   -2.96109353596   -1.27209143018
| 71> O                      -3.25401964873    0.00000000000    3.25401964873
| 72> O                       3.25401964873    0.00000000000    3.25401964873
| 73> O                      -3.25401964873    0.00000000000   -3.25401964873
| 74> O                       3.25401964873    0.00000000000   -3.25401964873
| 75> Ti                      0.00000000000    4.44164030394   -1.27209143018
| 76> Ti                      0.00000000000   -4.44164030394   -1.27209143018
| 77> O                      -4.52611107891    1.48054676798   -1.27209143018
| 78> O                       4.52611107891    1.48054676798   -1.27209143018
| 79> O                       4.52611107891   -1.48054676798   -1.27209143018
| 80> O                      -4.52611107891   -1.48054676798   -1.27209143018
| 81> O                      -1.27209143018    1.48054676798   -4.52611107891
| 82> O                       1.27209143018    1.48054676798   -4.52611107891
| 83> O                       1.27209143018   -1.48054676798   -4.52611107891
| 84> O                      -1.27209143018   -1.48054676798   -4.52611107891
| 85> O                      -0.00000000000    2.96109353596    3.96385643712
| 86> O                      -0.00000000000   -2.96109353596    3.96385643712
| 87> O                      -1.27209143018    4.44164030394    1.98192821856
| 88> O                       1.27209143018    4.44164030394    1.98192821856
| 89> O                       1.27209143018   -4.44164030394    1.98192821856
| 90> O                      -1.27209143018   -4.44164030394    1.98192821856
| 91> O                      -1.98192821856    4.44164030394   -1.27209143018
| 92> O                       1.98192821856    4.44164030394   -1.27209143018
| 93> O                       1.98192821856   -4.44164030394   -1.27209143018
| 94> O                      -1.98192821856   -4.44164030394   -1.27209143018
| 95> Ti                      0.00000000000    2.96109353596   -4.52611107891
| 96> Ti                      0.00000000000   -2.96109353596   -4.52611107891
| 97> Ti                      0.00000000000    1.48054676798    5.23594786729
| 98> Ti                      0.00000000000   -1.48054676798    5.23594786729
| 99> O                      -3.25401964873    2.96109353596    3.25401964873
|100> O                       3.25401964873    2.96109353596    3.25401964873
|101> O                       3.25401964873   -2.96109353596    3.25401964873
|102> O                      -3.25401964873   -2.96109353596    3.25401964873
|103> O                      -3.25401964873    2.96109353596   -3.25401964873
|104> O                       3.25401964873    2.96109353596   -3.25401964873
|105> O                       3.25401964873   -2.96109353596   -3.25401964873
|106> O                      -3.25401964873   -2.96109353596   -3.25401964873
|107> Ti                     -3.25401964873    1.48054676798   -4.52611107891
|108> Ti                      3.25401964873    1.48054676798   -4.52611107891
|109> Ti                      3.25401964873   -1.48054676798   -4.52611107891
|110> Ti                     -3.25401964873   -1.48054676798   -4.52611107891
|111> O                      -1.98192821856    1.48054676798    5.23594786729
|112> O                       1.98192821856    1.48054676798    5.23594786729
|113> O                       1.98192821856   -1.48054676798    5.23594786729
|114> O                      -1.98192821856   -1.48054676798    5.23594786729
|115> O                      -5.23594786729    1.48054676798    1.98192821856
|116> O                       5.23594786729    1.48054676798    1.98192821856
|117> O                       5.23594786729   -1.48054676798    1.98192821856
|118> O                      -5.23594786729   -1.48054676798    1.98192821856
|119> Ti                     -3.25401964873    4.44164030394    1.98192821856
|120> Ti                      3.25401964873    4.44164030394    1.98192821856
|121> Ti                      3.25401964873   -4.44164030394    1.98192821856
|122> Ti                     -3.25401964873   -4.44164030394    1.98192821856
|123> O                       0.00000000000    5.92218707193    0.00000000000
|124> O                       0.00000000000   -5.92218707193    0.00000000000
|125> Ti                     -3.25401964873    0.00000000000    5.23594786729
|126> Ti                      3.25401964873    0.00000000000    5.23594786729
|127> Ti                      0.00000000000    5.92218707193    1.98192821856
|128> Ti                      0.00000000000   -5.92218707193    1.98192821856
|129> O                      -0.00000000000    5.92218707193   -2.54418286035
|130> O                      -0.00000000000   -5.92218707193   -2.54418286035
|131> O                      -4.52611107891    4.44164030394   -1.27209143018
|132> O                       4.52611107891    4.44164030394   -1.27209143018
|133> O                       4.52611107891   -4.44164030394   -1.27209143018
|134> O                      -4.52611107891   -4.44164030394   -1.27209143018
|135> O                      -1.27209143018    4.44164030394   -4.52611107891
|136> O                       1.27209143018    4.44164030394   -4.52611107891
|137> O                       1.27209143018   -4.44164030394   -4.52611107891
|138> O                      -1.27209143018   -4.44164030394   -4.52611107891
|139> O                       0.00000000000    0.00000000000    6.50803929747
|140> O                      -6.50803929747    0.00000000000    0.00000000000
|141> O                       6.50803929747    0.00000000000    0.00000000000
|142> O                       0.00000000000    0.00000000000   -6.50803929747
|143> O                      -3.25401964873    0.00000000000   -5.79820250908
|144> O                       3.25401964873    0.00000000000   -5.79820250908
|145> O                      -3.25401964873    5.92218707193    0.70983678838
|146> O                       3.25401964873    5.92218707193    0.70983678838
|147> O                       3.25401964873   -5.92218707193    0.70983678838
|148> O                      -3.25401964873   -5.92218707193    0.70983678838
|149> Ti                     -6.50803929747    1.48054676798   -1.27209143018
|150> Ti                      6.50803929747    1.48054676798   -1.27209143018
|151> Ti                      6.50803929747   -1.48054676798   -1.27209143018
|152> Ti                     -6.50803929747   -1.48054676798   -1.27209143018
|153> Ti                     -6.50803929747    0.00000000000    1.98192821856
|154> Ti                      6.50803929747    0.00000000000    1.98192821856
|155> Ti                     -3.25401964873    2.96109353596    5.23594786729
|156> Ti                      3.25401964873    2.96109353596    5.23594786729
|157> Ti                      3.25401964873   -2.96109353596    5.23594786729
|158> Ti                     -3.25401964873   -2.96109353596    5.23594786729
|159> Ti                      0.00000000000    4.44164030394    5.23594786729
|160> Ti                      0.00000000000   -4.44164030394    5.23594786729
|161> Ti                     -3.25401964873    5.92218707193   -1.27209143018
|162> Ti                      3.25401964873    5.92218707193   -1.27209143018
|163> Ti                      3.25401964873   -5.92218707193   -1.27209143018
|164> Ti                     -3.25401964873   -5.92218707193   -1.27209143018
|165> O                      -6.50803929747    0.00000000000   -2.54418286035
|166> O                       6.50803929747    0.00000000000   -2.54418286035
|167> O                      -4.52611107891    1.48054676798    5.23594786729
|168> O                       4.52611107891    1.48054676798    5.23594786729
|169> O                       4.52611107891   -1.48054676798    5.23594786729
|170> O                      -4.52611107891   -1.48054676798    5.23594786729
|171> O                      -5.23594786729    1.48054676798   -4.52611107891
|172> O                       5.23594786729    1.48054676798   -4.52611107891
|173> O                       5.23594786729   -1.48054676798   -4.52611107891
|174> O                      -5.23594786729   -1.48054676798   -4.52611107891
|175> O                      -0.00000000000    5.92218707193    3.96385643712
|176> O                      -0.00000000000   -5.92218707193    3.96385643712
|177> Ti                     -3.25401964873    4.44164030394   -4.52611107891
|178> Ti                      3.25401964873    4.44164030394   -4.52611107891
|179> Ti                      3.25401964873   -4.44164030394   -4.52611107891
|180> Ti                     -3.25401964873   -4.44164030394   -4.52611107891
|181> O                      -1.98192821856    4.44164030394    5.23594786729
|182> O                       1.98192821856    4.44164030394    5.23594786729
|183> O                       1.98192821856   -4.44164030394    5.23594786729
|184> O                      -1.98192821856   -4.44164030394    5.23594786729
|185> O                      -5.23594786729    4.44164030394    1.98192821856
|186> O                       5.23594786729    4.44164030394    1.98192821856
|187> O                       5.23594786729   -4.44164030394    1.98192821856
|188> O                      -5.23594786729   -4.44164030394    1.98192821856
|189> O                       0.00000000000    2.96109353596    6.50803929747
|190> O                       0.00000000000   -2.96109353596    6.50803929747
|191> O                      -6.50803929747    2.96109353596    0.00000000000
|192> O                       6.50803929747    2.96109353596    0.00000000000
|193> O                       6.50803929747   -2.96109353596    0.00000000000
|194> O                      -6.50803929747   -2.96109353596    0.00000000000
|195> O                       0.00000000000    2.96109353596   -6.50803929747
|196> O                       0.00000000000   -2.96109353596   -6.50803929747
|197> O                      -3.25401964873    2.96109353596   -5.79820250908
|198> O                       3.25401964873    2.96109353596   -5.79820250908
|199> O                       3.25401964873   -2.96109353596   -5.79820250908
|200> O                      -3.25401964873   -2.96109353596   -5.79820250908
|201> Ti                     -6.50803929747    2.96109353596    1.98192821856
|202> Ti                      6.50803929747    2.96109353596    1.98192821856
|203> Ti                      6.50803929747   -2.96109353596    1.98192821856
|204> Ti                     -6.50803929747   -2.96109353596    1.98192821856
|205> Ti                      0.00000000000    5.92218707193   -4.52611107891
|206> Ti                      0.00000000000   -5.92218707193   -4.52611107891
|207> O                      -3.25401964873    5.92218707193    3.25401964873
|208> O                       3.25401964873    5.92218707193    3.25401964873
|209> O                       3.25401964873   -5.92218707193    3.25401964873
|210> O                      -3.25401964873   -5.92218707193    3.25401964873
|211> O                      -3.25401964873    5.92218707193   -3.25401964873
|212> O                       3.25401964873    5.92218707193   -3.25401964873
|213> O                       3.25401964873   -5.92218707193   -3.25401964873
|214> O                      -3.25401964873   -5.92218707193   -3.25401964873
|215> Ti                      0.00000000000    7.40273383991   -1.27209143018
|216> Ti                      0.00000000000   -7.40273383991   -1.27209143018
|217> O                      -6.50803929747    2.96109353596   -2.54418286035
|218> O                       6.50803929747    2.96109353596   -2.54418286035
|219> O                       6.50803929747   -2.96109353596   -2.54418286035
|220> O                      -6.50803929747   -2.96109353596   -2.54418286035
|221> O                      -6.50803929747    0.00000000000    3.96385643712
|222> O                       6.50803929747    0.00000000000    3.96385643712
|223> O                      -1.27209143018    7.40273383991    1.98192821856
|224> O                       1.27209143018    7.40273383991    1.98192821856
|225> O                       1.27209143018   -7.40273383991    1.98192821856
|226> O                      -1.27209143018   -7.40273383991    1.98192821856
|227> O                      -1.98192821856    7.40273383991   -1.27209143018
|228> O                       1.98192821856    7.40273383991   -1.27209143018
|229> O                       1.98192821856   -7.40273383991   -1.27209143018
|230> O                      -1.98192821856   -7.40273383991   -1.27209143018
|231> O                      -3.25401964873    0.00000000000    7.21787608585
|232> O                       3.25401964873    0.00000000000    7.21787608585
|233> Ti                      0.00000000000    1.48054676798   -7.78013072764
|234> Ti                      0.00000000000   -1.48054676798   -7.78013072764
|235> Ti                     -6.50803929747    0.00000000000   -4.52611107891
|236> Ti                      6.50803929747    0.00000000000   -4.52611107891
|237> Ti                     -6.50803929747    4.44164030394   -1.27209143018
|238> Ti                      6.50803929747    4.44164030394   -1.27209143018
|239> Ti                      6.50803929747   -4.44164030394   -1.27209143018
|240> Ti                     -6.50803929747   -4.44164030394   -1.27209143018
|241> O                      -7.78013072764    1.48054676798    1.98192821856
|242> O                       7.78013072764    1.48054676798    1.98192821856
|243> O                       7.78013072764   -1.48054676798    1.98192821856
|244> O                      -7.78013072764   -1.48054676798    1.98192821856
|245> O                      -1.98192821856    1.48054676798   -7.78013072764
|246> O                       1.98192821856    1.48054676798   -7.78013072764
|247> O                       1.98192821856   -1.48054676798   -7.78013072764
|248> O                      -1.98192821856   -1.48054676798   -7.78013072764
|249> O                      -6.50803929747    2.96109353596    3.96385643712
|250> O                       6.50803929747    2.96109353596    3.96385643712
|251> O                       6.50803929747   -2.96109353596    3.96385643712
|252> O                      -6.50803929747   -2.96109353596    3.96385643712
|253> O                      -4.52611107891    4.44164030394    5.23594786729
|254> O                       4.52611107891    4.44164030394    5.23594786729
|255> O                       4.52611107891   -4.44164030394    5.23594786729
|256> O                      -4.52611107891   -4.44164030394    5.23594786729
|257> O                      -5.23594786729    4.44164030394   -4.52611107891
|258> O                       5.23594786729    4.44164030394   -4.52611107891
|259> O                       5.23594786729   -4.44164030394   -4.52611107891
|260> O                      -5.23594786729   -4.44164030394   -4.52611107891
|261> Ti                     -3.25401964873    7.40273383991    1.98192821856
|262> Ti                      3.25401964873    7.40273383991    1.98192821856
|263> Ti                      3.25401964873   -7.40273383991    1.98192821856
|264> Ti                     -3.25401964873   -7.40273383991    1.98192821856
|265> Ti                     -3.25401964873    0.00000000000   -7.78013072764
|266> Ti                      3.25401964873    0.00000000000   -7.78013072764
|267> O                      -3.25401964873    2.96109353596    7.21787608585
|268> O                       3.25401964873    2.96109353596    7.21787608585
|269> O                       3.25401964873   -2.96109353596    7.21787608585
|270> O                      -3.25401964873   -2.96109353596    7.21787608585
|271> Ti                     -6.50803929747    2.96109353596   -4.52611107891
|272> Ti                      6.50803929747    2.96109353596   -4.52611107891
|273> Ti                      6.50803929747   -2.96109353596   -4.52611107891
|274> Ti                     -6.50803929747   -2.96109353596   -4.52611107891
|275> Ti                     -6.50803929747    1.48054676798    5.23594786729
|276> Ti                      6.50803929747    1.48054676798    5.23594786729
|277> Ti                      6.50803929747   -1.48054676798    5.23594786729
|278> Ti                     -6.50803929747   -1.48054676798    5.23594786729
|279> Ti                      0.00000000000    0.00000000000    8.48996751602
|280> Ti                     -3.25401964873    5.92218707193    5.23594786729
|281> Ti                      3.25401964873    5.92218707193    5.23594786729
|282> Ti                      3.25401964873   -5.92218707193    5.23594786729
|283> Ti                     -3.25401964873   -5.92218707193    5.23594786729
|284> O                      -1.27209143018    1.48054676798    8.48996751602
|285> O                       1.27209143018    1.48054676798    8.48996751602
|286> O                       1.27209143018   -1.48054676798    8.48996751602
|287> O                      -1.27209143018   -1.48054676798    8.48996751602
|288> O                      -8.48996751602    1.48054676798   -1.27209143018
|289> O                       8.48996751602    1.48054676798   -1.27209143018
|290> O                       8.48996751602   -1.48054676798   -1.27209143018
|291> O                      -8.48996751602   -1.48054676798   -1.27209143018
|292> O                      -4.52611107891    7.40273383991   -1.27209143018
|293> O                       4.52611107891    7.40273383991   -1.27209143018
|294> O                       4.52611107891   -7.40273383991   -1.27209143018
|295> O                      -4.52611107891   -7.40273383991   -1.27209143018
|296> O                      -1.27209143018    7.40273383991   -4.52611107891
|297> O                       1.27209143018    7.40273383991   -4.52611107891
|298> O                       1.27209143018   -7.40273383991   -4.52611107891
|299> O                      -1.27209143018   -7.40273383991   -4.52611107891
|300> O                      -0.00000000000    0.00000000000   -9.05222215782
|301> Ti>    4.00000000000   -3.25401964873    2.96109353596   -7.78013072764
|302> NewECP
|303> N_core 0
|304>   lmax f
|305>   s 2
|306>    1      0.860000       9.191690  2
|307>    2      0.172000       0.008301  2
|308>   p 2
|309>    1      0.860000      17.997720  2
|310>    2      0.172000      -0.032600  2
|311>   d 2
|312>    1      1.600000      -9.504310  2
|313>    2      0.320000      -0.151370  2
|314>   f 1
|315>    1      1.000000000    0.000000000 2
|316> end
|317> Ti>    4.00000000000    3.25401964873    2.96109353596   -7.78013072764
|318> NewECP
|319> N_core 0
|320>   lmax f
|321>   s 2
|322>    1      0.860000       9.191690  2
|323>    2      0.172000       0.008301  2
|324>   p 2
|325>    1      0.860000      17.997720  2
|326>    2      0.172000      -0.032600  2
|327>   d 2
|328>    1      1.600000      -9.504310  2
|329>    2      0.320000      -0.151370  2
|330>   f 1
|331>    1      1.000000000    0.000000000 2
|332> end
|333> Ti>    4.00000000000    3.25401964873   -2.96109353596   -7.78013072764
|334> NewECP
|335> N_core 0
|336>   lmax f
|337>   s 2
|338>    1      0.860000       9.191690  2
|339>    2      0.172000       0.008301  2
|340>   p 2
|341>    1      0.860000      17.997720  2
|342>    2      0.172000      -0.032600  2
|343>   d 2
|344>    1      1.600000      -9.504310  2
|345>    2      0.320000      -0.151370  2
|346>   f 1
|347>    1      1.000000000    0.000000000 2
|348> end
|349> Ti>    4.00000000000   -3.25401964873   -2.96109353596   -7.78013072764
|350> NewECP
|351> N_core 0
|352>   lmax f
|353>   s 2
|354>    1      0.860000       9.191690  2
|355>    2      0.172000       0.008301  2
|356>   p 2
|357>    1      0.860000      17.997720  2
|358>    2      0.172000      -0.032600  2
|359>   d 2
|360>    1      1.600000      -9.504310  2
|361>    2      0.320000      -0.151370  2
|362>   f 1
|363>    1      1.000000000    0.000000000 2
|364> end
|365> Ti>    4.00000000000    0.00000000000    4.44164030394   -7.78013072764
|366> NewECP
|367> N_core 0
|368>   lmax f
|369>   s 2
|370>    1      0.860000       9.191690  2
|371>    2      0.172000       0.008301  2
|372>   p 2
|373>    1      0.860000      17.997720  2
|374>    2      0.172000      -0.032600  2
|375>   d 2
|376>    1      1.600000      -9.504310  2
|377>    2      0.320000      -0.151370  2
|378>   f 1
|379>    1      1.000000000    0.000000000 2
|380> end
|381> Ti>    4.00000000000    0.00000000000   -4.44164030394   -7.78013072764
|382> NewECP
|383> N_core 0
|384>   lmax f
|385>   s 2
|386>    1      0.860000       9.191690  2
|387>    2      0.172000       0.008301  2
|388>   p 2
|389>    1      0.860000      17.997720  2
|390>    2      0.172000      -0.032600  2
|391>   d 2
|392>    1      1.600000      -9.504310  2
|393>    2      0.320000      -0.151370  2
|394>   f 1
|395>    1      1.000000000    0.000000000 2
|396> end
|397> Ti>    4.00000000000    0.00000000000    2.96109353596    8.48996751602
|398> NewECP
|399> N_core 0
|400>   lmax f
|401>   s 2
|402>    1      0.860000       9.191690  2
|403>    2      0.172000       0.008301  2
|404>   p 2
|405>    1      0.860000      17.997720  2
|406>    2      0.172000      -0.032600  2
|407>   d 2
|408>    1      1.600000      -9.504310  2
|409>    2      0.320000      -0.151370  2
|410>   f 1
|411>    1      1.000000000    0.000000000 2
|412> end
|413> Ti>    4.00000000000    0.00000000000   -2.96109353596    8.48996751602
|414> NewECP
|415> N_core 0
|416>   lmax f
|417>   s 2
|418>    1      0.860000       9.191690  2
|419>    2      0.172000       0.008301  2
|420>   p 2
|421>    1      0.860000      17.997720  2
|422>    2      0.172000      -0.032600  2
|423>   d 2
|424>    1      1.600000      -9.504310  2
|425>    2      0.320000      -0.151370  2
|426>   f 1
|427>    1      1.000000000    0.000000000 2
|428> end
|429> Ti>    4.00000000000   -6.50803929747    5.92218707193    1.98192821856
|430> NewECP
|431> N_core 0
|432>   lmax f
|433>   s 2
|434>    1      0.860000       9.191690  2
|435>    2      0.172000       0.008301  2
|436>   p 2
|437>    1      0.860000      17.997720  2
|438>    2      0.172000      -0.032600  2
|439>   d 2
|440>    1      1.600000      -9.504310  2
|441>    2      0.320000      -0.151370  2
|442>   f 1
|443>    1      1.000000000    0.000000000 2
|444> end
|445> Ti>    4.00000000000    6.50803929747    5.92218707193    1.98192821856
|446> NewECP
|447> N_core 0
|448>   lmax f
|449>   s 2
|450>    1      0.860000       9.191690  2
|451>    2      0.172000       0.008301  2
|452>   p 2
|453>    1      0.860000      17.997720  2
|454>    2      0.172000      -0.032600  2
|455>   d 2
|456>    1      1.600000      -9.504310  2
|457>    2      0.320000      -0.151370  2
|458>   f 1
|459>    1      1.000000000    0.000000000 2
|460> end
|461> Ti>    4.00000000000    6.50803929747   -5.92218707193    1.98192821856
|462> NewECP
|463> N_core 0
|464>   lmax f
|465>   s 2
|466>    1      0.860000       9.191690  2
|467>    2      0.172000       0.008301  2
|468>   p 2
|469>    1      0.860000      17.997720  2
|470>    2      0.172000      -0.032600  2
|471>   d 2
|472>    1      1.600000      -9.504310  2
|473>    2      0.320000      -0.151370  2
|474>   f 1
|475>    1      1.000000000    0.000000000 2
|476> end
|477> Ti>    4.00000000000   -6.50803929747   -5.92218707193    1.98192821856
|478> NewECP
|479> N_core 0
|480>   lmax f
|481>   s 2
|482>    1      0.860000       9.191690  2
|483>    2      0.172000       0.008301  2
|484>   p 2
|485>    1      0.860000      17.997720  2
|486>    2      0.172000      -0.032600  2
|487>   d 2
|488>    1      1.600000      -9.504310  2
|489>    2      0.320000      -0.151370  2
|490>   f 1
|491>    1      1.000000000    0.000000000 2
|492> end
|493> Ti>    4.00000000000    0.00000000000    7.40273383991    5.23594786729
|494> NewECP
|495> N_core 0
|496>   lmax f
|497>   s 2
|498>    1      0.860000       9.191690  2
|499>    2      0.172000       0.008301  2
|500>   p 2
|501>    1      0.860000      17.997720  2
|502>    2      0.172000      -0.032600  2
|503>   d 2
|504>    1      1.600000      -9.504310  2
|505>    2      0.320000      -0.151370  2
|506>   f 1
|507>    1      1.000000000    0.000000000 2
|508> end
|509> Ti>    4.00000000000    0.00000000000   -7.40273383991    5.23594786729
|510> NewECP
|511> N_core 0
|512>   lmax f
|513>   s 2
|514>    1      0.860000       9.191690  2
|515>    2      0.172000       0.008301  2
|516>   p 2
|517>    1      0.860000      17.997720  2
|518>    2      0.172000      -0.032600  2
|519>   d 2
|520>    1      1.600000      -9.504310  2
|521>    2      0.320000      -0.151370  2
|522>   f 1
|523>    1      1.000000000    0.000000000 2
|524> end
|525> Ti>    4.00000000000    0.00000000000    8.88328060789    1.98192821856
|526> NewECP
|527> N_core 0
|528>   lmax f
|529>   s 2
|530>    1      0.860000       9.191690  2
|531>    2      0.172000       0.008301  2
|532>   p 2
|533>    1      0.860000      17.997720  2
|534>    2      0.172000      -0.032600  2
|535>   d 2
|536>    1      1.600000      -9.504310  2
|537>    2      0.320000      -0.151370  2
|538>   f 1
|539>    1      1.000000000    0.000000000 2
|540> end
|541> Ti>    4.00000000000    0.00000000000   -8.88328060789    1.98192821856
|542> NewECP
|543> N_core 0
|544>   lmax f
|545>   s 2
|546>    1      0.860000       9.191690  2
|547>    2      0.172000       0.008301  2
|548>   p 2
|549>    1      0.860000      17.997720  2
|550>    2      0.172000      -0.032600  2
|551>   d 2
|552>    1      1.600000      -9.504310  2
|553>    2      0.320000      -0.151370  2
|554>   f 1
|555>    1      1.000000000    0.000000000 2
|556> end
|557> Ti>    4.00000000000   -3.25401964873    1.48054676798    8.48996751602
|558> NewECP
|559> N_core 0
|560>   lmax f
|561>   s 2
|562>    1      0.860000       9.191690  2
|563>    2      0.172000       0.008301  2
|564>   p 2
|565>    1      0.860000      17.997720  2
|566>    2      0.172000      -0.032600  2
|567>   d 2
|568>    1      1.600000      -9.504310  2
|569>    2      0.320000      -0.151370  2
|570>   f 1
|571>    1      1.000000000    0.000000000 2
|572> end
|573> Ti>    4.00000000000    3.25401964873    1.48054676798    8.48996751602
|574> NewECP
|575> N_core 0
|576>   lmax f
|577>   s 2
|578>    1      0.860000       9.191690  2
|579>    2      0.172000       0.008301  2
|580>   p 2
|581>    1      0.860000      17.997720  2
|582>    2      0.172000      -0.032600  2
|583>   d 2
|584>    1      1.600000      -9.504310  2
|585>    2      0.320000      -0.151370  2
|586>   f 1
|587>    1      1.000000000    0.000000000 2
|588> end
|589> Ti>    4.00000000000    3.25401964873   -1.48054676798    8.48996751602
|590> NewECP
|591> N_core 0
|592>   lmax f
|593>   s 2
|594>    1      0.860000       9.191690  2
|595>    2      0.172000       0.008301  2
|596>   p 2
|597>    1      0.860000      17.997720  2
|598>    2      0.172000      -0.032600  2
|599>   d 2
|600>    1      1.600000      -9.504310  2
|601>    2      0.320000      -0.151370  2
|602>   f 1
|603>    1      1.000000000    0.000000000 2
|604> end
|605> Ti>    4.00000000000   -3.25401964873   -1.48054676798    8.48996751602
|606> NewECP
|607> N_core 0
|608>   lmax f
|609>   s 2
|610>    1      0.860000       9.191690  2
|611>    2      0.172000       0.008301  2
|612>   p 2
|613>    1      0.860000      17.997720  2
|614>    2      0.172000      -0.032600  2
|615>   d 2
|616>    1      1.600000      -9.504310  2
|617>    2      0.320000      -0.151370  2
|618>   f 1
|619>    1      1.000000000    0.000000000 2
|620> end
|621> Ti>    4.00000000000   -3.25401964873    7.40273383991   -4.52611107891
|622> NewECP
|623> N_core 0
|624>   lmax f
|625>   s 2
|626>    1      0.860000       9.191690  2
|627>    2      0.172000       0.008301  2
|628>   p 2
|629>    1      0.860000      17.997720  2
|630>    2      0.172000      -0.032600  2
|631>   d 2
|632>    1      1.600000      -9.504310  2
|633>    2      0.320000      -0.151370  2
|634>   f 1
|635>    1      1.000000000    0.000000000 2
|636> end
|637> Ti>    4.00000000000    3.25401964873    7.40273383991   -4.52611107891
|638> NewECP
|639> N_core 0
|640>   lmax f
|641>   s 2
|642>    1      0.860000       9.191690  2
|643>    2      0.172000       0.008301  2
|644>   p 2
|645>    1      0.860000      17.997720  2
|646>    2      0.172000      -0.032600  2
|647>   d 2
|648>    1      1.600000      -9.504310  2
|649>    2      0.320000      -0.151370  2
|650>   f 1
|651>    1      1.000000000    0.000000000 2
|652> end
|653> Ti>    4.00000000000    3.25401964873   -7.40273383991   -4.52611107891
|654> NewECP
|655> N_core 0
|656>   lmax f
|657>   s 2
|658>    1      0.860000       9.191690  2
|659>    2      0.172000       0.008301  2
|660>   p 2
|661>    1      0.860000      17.997720  2
|662>    2      0.172000      -0.032600  2
|663>   d 2
|664>    1      1.600000      -9.504310  2
|665>    2      0.320000      -0.151370  2
|666>   f 1
|667>    1      1.000000000    0.000000000 2
|668> end
|669> Ti>    4.00000000000   -3.25401964873   -7.40273383991   -4.52611107891
|670> NewECP
|671> N_core 0
|672>   lmax f
|673>   s 2
|674>    1      0.860000       9.191690  2
|675>    2      0.172000       0.008301  2
|676>   p 2
|677>    1      0.860000      17.997720  2
|678>    2      0.172000      -0.032600  2
|679>   d 2
|680>    1      1.600000      -9.504310  2
|681>    2      0.320000      -0.151370  2
|682>   f 1
|683>    1      1.000000000    0.000000000 2
|684> end
|685> Ti>    4.00000000000   -6.50803929747    4.44164030394    5.23594786729
|686> NewECP
|687> N_core 0
|688>   lmax f
|689>   s 2
|690>    1      0.860000       9.191690  2
|691>    2      0.172000       0.008301  2
|692>   p 2
|693>    1      0.860000      17.997720  2
|694>    2      0.172000      -0.032600  2
|695>   d 2
|696>    1      1.600000      -9.504310  2
|697>    2      0.320000      -0.151370  2
|698>   f 1
|699>    1      1.000000000    0.000000000 2
|700> end
|701> Ti>    4.00000000000    6.50803929747    4.44164030394    5.23594786729
|702> NewECP
|703> N_core 0
|704>   lmax f
|705>   s 2
|706>    1      0.860000       9.191690  2
|707>    2      0.172000       0.008301  2
|708>   p 2
|709>    1      0.860000      17.997720  2
|710>    2      0.172000      -0.032600  2
|711>   d 2
|712>    1      1.600000      -9.504310  2
|713>    2      0.320000      -0.151370  2
|714>   f 1
|715>    1      1.000000000    0.000000000 2
|716> end
|717> Ti>    4.00000000000    6.50803929747   -4.44164030394    5.23594786729
|718> NewECP
|719> N_core 0
|720>   lmax f
|721>   s 2
|722>    1      0.860000       9.191690  2
|723>    2      0.172000       0.008301  2
|724>   p 2
|725>    1      0.860000      17.997720  2
|726>    2      0.172000      -0.032600  2
|727>   d 2
|728>    1      1.600000      -9.504310  2
|729>    2      0.320000      -0.151370  2
|730>   f 1
|731>    1      1.000000000    0.000000000 2
|732> end
|733> Ti>    4.00000000000   -6.50803929747   -4.44164030394    5.23594786729
|734> NewECP
|735> N_core 0
|736>   lmax f
|737>   s 2
|738>    1      0.860000       9.191690  2
|739>    2      0.172000       0.008301  2
|740>   p 2
|741>    1      0.860000      17.997720  2
|742>    2      0.172000      -0.032600  2
|743>   d 2
|744>    1      1.600000      -9.504310  2
|745>    2      0.320000      -0.151370  2
|746>   f 1
|747>    1      1.000000000    0.000000000 2
|748> end
|749> Ti>    4.00000000000   -3.25401964873    8.88328060789   -1.27209143018
|750> NewECP
|751> N_core 0
|752>   lmax f
|753>   s 2
|754>    1      0.860000       9.191690  2
|755>    2      0.172000       0.008301  2
|756>   p 2
|757>    1      0.860000      17.997720  2
|758>    2      0.172000      -0.032600  2
|759>   d 2
|760>    1      1.600000      -9.504310  2
|761>    2      0.320000      -0.151370  2
|762>   f 1
|763>    1      1.000000000    0.000000000 2
|764> end
|765> Ti>    4.00000000000    3.25401964873    8.88328060789   -1.27209143018
|766> NewECP
|767> N_core 0
|768>   lmax f
|769>   s 2
|770>    1      0.860000       9.191690  2
|771>    2      0.172000       0.008301  2
|772>   p 2
|773>    1      0.860000      17.997720  2
|774>    2      0.172000      -0.032600  2
|775>   d 2
|776>    1      1.600000      -9.504310  2
|777>    2      0.320000      -0.151370  2
|778>   f 1
|779>    1      1.000000000    0.000000000 2
|780> end
|781> Ti>    4.00000000000    3.25401964873   -8.88328060789   -1.27209143018
|782> NewECP
|783> N_core 0
|784>   lmax f
|785>   s 2
|786>    1      0.860000       9.191690  2
|787>    2      0.172000       0.008301  2
|788>   p 2
|789>    1      0.860000      17.997720  2
|790>    2      0.172000      -0.032600  2
|791>   d 2
|792>    1      1.600000      -9.504310  2
|793>    2      0.320000      -0.151370  2
|794>   f 1
|795>    1      1.000000000    0.000000000 2
|796> end
|797> Ti>    4.00000000000   -3.25401964873   -8.88328060789   -1.27209143018
|798> NewECP
|799> N_core 0
|800>   lmax f
|801>   s 2
|802>    1      0.860000       9.191690  2
|803>    2      0.172000       0.008301  2
|804>   p 2
|805>    1      0.860000      17.997720  2
|806>    2      0.172000      -0.032600  2
|807>   d 2
|808>    1      1.600000      -9.504310  2
|809>    2      0.320000      -0.151370  2
|810>   f 1
|811>    1      1.000000000    0.000000000 2
|812> end
|813> Ti>    4.00000000000   -9.76205894620    0.00000000000   -1.27209143018
|814> NewECP
|815> N_core 0
|816>   lmax f
|817>   s 2
|818>    1      0.860000       9.191690  2
|819>    2      0.172000       0.008301  2
|820>   p 2
|821>    1      0.860000      17.997720  2
|822>    2      0.172000      -0.032600  2
|823>   d 2
|824>    1      1.600000      -9.504310  2
|825>    2      0.320000      -0.151370  2
|826>   f 1
|827>    1      1.000000000    0.000000000 2
|828> end
|829> Ti>    4.00000000000    9.76205894620    0.00000000000   -1.27209143018
|830> NewECP
|831> N_core 0
|832>   lmax f
|833>   s 2
|834>    1      0.860000       9.191690  2
|835>    2      0.172000       0.008301  2
|836>   p 2
|837>    1      0.860000      17.997720  2
|838>    2      0.172000      -0.032600  2
|839>   d 2
|840>    1      1.600000      -9.504310  2
|841>    2      0.320000      -0.151370  2
|842>   f 1
|843>    1      1.000000000    0.000000000 2
|844> end
|845> Ti>    4.00000000000   -6.50803929747    5.92218707193   -4.52611107891
|846> NewECP
|847> N_core 0
|848>   lmax f
|849>   s 2
|850>    1      0.860000       9.191690  2
|851>    2      0.172000       0.008301  2
|852>   p 2
|853>    1      0.860000      17.997720  2
|854>    2      0.172000      -0.032600  2
|855>   d 2
|856>    1      1.600000      -9.504310  2
|857>    2      0.320000      -0.151370  2
|858>   f 1
|859>    1      1.000000000    0.000000000 2
|860> end
|861> Ti>    4.00000000000    6.50803929747    5.92218707193   -4.52611107891
|862> NewECP
|863> N_core 0
|864>   lmax f
|865>   s 2
|866>    1      0.860000       9.191690  2
|867>    2      0.172000       0.008301  2
|868>   p 2
|869>    1      0.860000      17.997720  2
|870>    2      0.172000      -0.032600  2
|871>   d 2
|872>    1      1.600000      -9.504310  2
|873>    2      0.320000      -0.151370  2
|874>   f 1
|875>    1      1.000000000    0.000000000 2
|876> end
|877> Ti>    4.00000000000    6.50803929747   -5.92218707193   -4.52611107891
|878> NewECP
|879> N_core 0
|880>   lmax f
|881>   s 2
|882>    1      0.860000       9.191690  2
|883>    2      0.172000       0.008301  2
|884>   p 2
|885>    1      0.860000      17.997720  2
|886>    2      0.172000      -0.032600  2
|887>   d 2
|888>    1      1.600000      -9.504310  2
|889>    2      0.320000      -0.151370  2
|890>   f 1
|891>    1      1.000000000    0.000000000 2
|892> end
|893> Ti>    4.00000000000   -6.50803929747   -5.92218707193   -4.52611107891
|894> NewECP
|895> N_core 0
|896>   lmax f
|897>   s 2
|898>    1      0.860000       9.191690  2
|899>    2      0.172000       0.008301  2
|900>   p 2
|901>    1      0.860000      17.997720  2
|902>    2      0.172000      -0.032600  2
|903>   d 2
|904>    1      1.600000      -9.504310  2
|905>    2      0.320000      -0.151370  2
|906>   f 1
|907>    1      1.000000000    0.000000000 2
|908> end
|909> Ti>    4.00000000000   -6.50803929747    7.40273383991   -1.27209143018
|910> NewECP
|911> N_core 0
|912>   lmax f
|913>   s 2
|914>    1      0.860000       9.191690  2
|915>    2      0.172000       0.008301  2
|916>   p 2
|917>    1      0.860000      17.997720  2
|918>    2      0.172000      -0.032600  2
|919>   d 2
|920>    1      1.600000      -9.504310  2
|921>    2      0.320000      -0.151370  2
|922>   f 1
|923>    1      1.000000000    0.000000000 2
|924> end
|925> Ti>    4.00000000000    6.50803929747    7.40273383991   -1.27209143018
|926> NewECP
|927> N_core 0
|928>   lmax f
|929>   s 2
|930>    1      0.860000       9.191690  2
|931>    2      0.172000       0.008301  2
|932>   p 2
|933>    1      0.860000      17.997720  2
|934>    2      0.172000      -0.032600  2
|935>   d 2
|936>    1      1.600000      -9.504310  2
|937>    2      0.320000      -0.151370  2
|938>   f 1
|939>    1      1.000000000    0.000000000 2
|940> end
|941> Ti>    4.00000000000    6.50803929747   -7.40273383991   -1.27209143018
|942> NewECP
|943> N_core 0
|944>   lmax f
|945>   s 2
|946>    1      0.860000       9.191690  2
|947>    2      0.172000       0.008301  2
|948>   p 2
|949>    1      0.860000      17.997720  2
|950>    2      0.172000      -0.032600  2
|951>   d 2
|952>    1      1.600000      -9.504310  2
|953>    2      0.320000      -0.151370  2
|954>   f 1
|955>    1      1.000000000    0.000000000 2
|956> end
|957> Ti>    4.00000000000   -6.50803929747   -7.40273383991   -1.27209143018
|958> NewECP
|959> N_core 0
|960>   lmax f
|961>   s 2
|962>    1      0.860000       9.191690  2
|963>    2      0.172000       0.008301  2
|964>   p 2
|965>    1      0.860000      17.997720  2
|966>    2      0.172000      -0.032600  2
|967>   d 2
|968>    1      1.600000      -9.504310  2
|969>    2      0.320000      -0.151370  2
|970>   f 1
|971>    1      1.000000000    0.000000000 2
|972> end
|973> Ti>    4.00000000000    0.00000000000    8.88328060789   -4.52611107891
|974> NewECP
|975> N_core 0
|976>   lmax f
|977>   s 2
|978>    1      0.860000       9.191690  2
|979>    2      0.172000       0.008301  2
|980>   p 2
|981>    1      0.860000      17.997720  2
|982>    2      0.172000      -0.032600  2
|983>   d 2
|984>    1      1.600000      -9.504310  2
|985>    2      0.320000      -0.151370  2
|986>   f 1
|987>    1      1.000000000    0.000000000 2
|988> end
|989> Ti>    4.00000000000    0.00000000000   -8.88328060789   -4.52611107891
|990> NewECP
|991> N_core 0
|992>   lmax f
|993>   s 2
|994>    1      0.860000       9.191690  2
|995>    2      0.172000       0.008301  2
|996>   p 2
|997>    1      0.860000      17.997720  2
|998>    2      0.172000      -0.032600  2
|999>   d 2
|1000>    1      1.600000      -9.504310  2
|1001>    2      0.320000      -0.151370  2
|1002>   f 1
|1003>    1      1.000000000    0.000000000 2
|1004> end
|1005> Ti>    4.00000000000   -9.76205894620    1.48054676798    1.98192821856
|1006> NewECP
|1007> N_core 0
|1008>   lmax f
|1009>   s 2
|1010>    1      0.860000       9.191690  2
|1011>    2      0.172000       0.008301  2
|1012>   p 2
|1013>    1      0.860000      17.997720  2
|1014>    2      0.172000      -0.032600  2
|1015>   d 2
|1016>    1      1.600000      -9.504310  2
|1017>    2      0.320000      -0.151370  2
|1018>   f 1
|1019>    1      1.000000000    0.000000000 2
|1020> end
|1021> Ti>    4.00000000000    9.76205894620    1.48054676798    1.98192821856
|1022> NewECP
|1023> N_core 0
|1024>   lmax f
|1025>   s 2
|1026>    1      0.860000       9.191690  2
|1027>    2      0.172000       0.008301  2
|1028>   p 2
|1029>    1      0.860000      17.997720  2
|1030>    2      0.172000      -0.032600  2
|1031>   d 2
|1032>    1      1.600000      -9.504310  2
|1033>    2      0.320000      -0.151370  2
|1034>   f 1
|1035>    1      1.000000000    0.000000000 2
|1036> end
|1037> Ti>    4.00000000000    9.76205894620   -1.48054676798    1.98192821856
|1038> NewECP
|1039> N_core 0
|1040>   lmax f
|1041>   s 2
|1042>    1      0.860000       9.191690  2
|1043>    2      0.172000       0.008301  2
|1044>   p 2
|1045>    1      0.860000      17.997720  2
|1046>    2      0.172000      -0.032600  2
|1047>   d 2
|1048>    1      1.600000      -9.504310  2
|1049>    2      0.320000      -0.151370  2
|1050>   f 1
|1051>    1      1.000000000    0.000000000 2
|1052> end
|1053> Ti>    4.00000000000   -9.76205894620   -1.48054676798    1.98192821856
|1054> NewECP
|1055> N_core 0
|1056>   lmax f
|1057>   s 2
|1058>    1      0.860000       9.191690  2
|1059>    2      0.172000       0.008301  2
|1060>   p 2
|1061>    1      0.860000      17.997720  2
|1062>    2      0.172000      -0.032600  2
|1063>   d 2
|1064>    1      1.600000      -9.504310  2
|1065>    2      0.320000      -0.151370  2
|1066>   f 1
|1067>    1      1.000000000    0.000000000 2
|1068> end
|1069> Ti>    4.00000000000   -3.25401964873    4.44164030394    8.48996751602
|1070> NewECP
|1071> N_core 0
|1072>   lmax f
|1073>   s 2
|1074>    1      0.860000       9.191690  2
|1075>    2      0.172000       0.008301  2
|1076>   p 2
|1077>    1      0.860000      17.997720  2
|1078>    2      0.172000      -0.032600  2
|1079>   d 2
|1080>    1      1.600000      -9.504310  2
|1081>    2      0.320000      -0.151370  2
|1082>   f 1
|1083>    1      1.000000000    0.000000000 2
|1084> end
|1085> Ti>    4.00000000000    3.25401964873    4.44164030394    8.48996751602
|1086> NewECP
|1087> N_core 0
|1088>   lmax f
|1089>   s 2
|1090>    1      0.860000       9.191690  2
|1091>    2      0.172000       0.008301  2
|1092>   p 2
|1093>    1      0.860000      17.997720  2
|1094>    2      0.172000      -0.032600  2
|1095>   d 2
|1096>    1      1.600000      -9.504310  2
|1097>    2      0.320000      -0.151370  2
|1098>   f 1
|1099>    1      1.000000000    0.000000000 2
|1100> end
|1101> Ti>    4.00000000000    3.25401964873   -4.44164030394    8.48996751602
|1102> NewECP
|1103> N_core 0
|1104>   lmax f
|1105>   s 2
|1106>    1      0.860000       9.191690  2
|1107>    2      0.172000       0.008301  2
|1108>   p 2
|1109>    1      0.860000      17.997720  2
|1110>    2      0.172000      -0.032600  2
|1111>   d 2
|1112>    1      1.600000      -9.504310  2
|1113>    2      0.320000      -0.151370  2
|1114>   f 1
|1115>    1      1.000000000    0.000000000 2
|1116> end
|1117> Ti>    4.00000000000   -3.25401964873   -4.44164030394    8.48996751602
|1118> NewECP
|1119> N_core 0
|1120>   lmax f
|1121>   s 2
|1122>    1      0.860000       9.191690  2
|1123>    2      0.172000       0.008301  2
|1124>   p 2
|1125>    1      0.860000      17.997720  2
|1126>    2      0.172000      -0.032600  2
|1127>   d 2
|1128>    1      1.600000      -9.504310  2
|1129>    2      0.320000      -0.151370  2
|1130>   f 1
|1131>    1      1.000000000    0.000000000 2
|1132> end
|1133> Ti>    4.00000000000   -6.50803929747    1.48054676798   -7.78013072764
|1134> NewECP
|1135> N_core 0
|1136>   lmax f
|1137>   s 2
|1138>    1      0.860000       9.191690  2
|1139>    2      0.172000       0.008301  2
|1140>   p 2
|1141>    1      0.860000      17.997720  2
|1142>    2      0.172000      -0.032600  2
|1143>   d 2
|1144>    1      1.600000      -9.504310  2
|1145>    2      0.320000      -0.151370  2
|1146>   f 1
|1147>    1      1.000000000    0.000000000 2
|1148> end
|1149> Ti>    4.00000000000    6.50803929747    1.48054676798   -7.78013072764
|1150> NewECP
|1151> N_core 0
|1152>   lmax f
|1153>   s 2
|1154>    1      0.860000       9.191690  2
|1155>    2      0.172000       0.008301  2
|1156>   p 2
|1157>    1      0.860000      17.997720  2
|1158>    2      0.172000      -0.032600  2
|1159>   d 2
|1160>    1      1.600000      -9.504310  2
|1161>    2      0.320000      -0.151370  2
|1162>   f 1
|1163>    1      1.000000000    0.000000000 2
|1164> end
|1165> Ti>    4.00000000000    6.50803929747   -1.48054676798   -7.78013072764
|1166> NewECP
|1167> N_core 0
|1168>   lmax f
|1169>   s 2
|1170>    1      0.860000       9.191690  2
|1171>    2      0.172000       0.008301  2
|1172>   p 2
|1173>    1      0.860000      17.997720  2
|1174>    2      0.172000      -0.032600  2
|1175>   d 2
|1176>    1      1.600000      -9.504310  2
|1177>    2      0.320000      -0.151370  2
|1178>   f 1
|1179>    1      1.000000000    0.000000000 2
|1180> end
|1181> Ti>    4.00000000000   -6.50803929747   -1.48054676798   -7.78013072764
|1182> NewECP
|1183> N_core 0
|1184>   lmax f
|1185>   s 2
|1186>    1      0.860000       9.191690  2
|1187>    2      0.172000       0.008301  2
|1188>   p 2
|1189>    1      0.860000      17.997720  2
|1190>    2      0.172000      -0.032600  2
|1191>   d 2
|1192>    1      1.600000      -9.504310  2
|1193>    2      0.320000      -0.151370  2
|1194>   f 1
|1195>    1      1.000000000    0.000000000 2
|1196> end
|1197> Ti>    4.00000000000   -9.76205894620    2.96109353596   -1.27209143018
|1198> NewECP
|1199> N_core 0
|1200>   lmax f
|1201>   s 2
|1202>    1      0.860000       9.191690  2
|1203>    2      0.172000       0.008301  2
|1204>   p 2
|1205>    1      0.860000      17.997720  2
|1206>    2      0.172000      -0.032600  2
|1207>   d 2
|1208>    1      1.600000      -9.504310  2
|1209>    2      0.320000      -0.151370  2
|1210>   f 1
|1211>    1      1.000000000    0.000000000 2
|1212> end
|1213> Ti>    4.00000000000    9.76205894620    2.96109353596   -1.27209143018
|1214> NewECP
|1215> N_core 0
|1216>   lmax f
|1217>   s 2
|1218>    1      0.860000       9.191690  2
|1219>    2      0.172000       0.008301  2
|1220>   p 2
|1221>    1      0.860000      17.997720  2
|1222>    2      0.172000      -0.032600  2
|1223>   d 2
|1224>    1      1.600000      -9.504310  2
|1225>    2      0.320000      -0.151370  2
|1226>   f 1
|1227>    1      1.000000000    0.000000000 2
|1228> end
|1229> Ti>    4.00000000000    9.76205894620   -2.96109353596   -1.27209143018
|1230> NewECP
|1231> N_core 0
|1232>   lmax f
|1233>   s 2
|1234>    1      0.860000       9.191690  2
|1235>    2      0.172000       0.008301  2
|1236>   p 2
|1237>    1      0.860000      17.997720  2
|1238>    2      0.172000      -0.032600  2
|1239>   d 2
|1240>    1      1.600000      -9.504310  2
|1241>    2      0.320000      -0.151370  2
|1242>   f 1
|1243>    1      1.000000000    0.000000000 2
|1244> end
|1245> Ti>    4.00000000000   -9.76205894620   -2.96109353596   -1.27209143018
|1246> NewECP
|1247> N_core 0
|1248>   lmax f
|1249>   s 2
|1250>    1      0.860000       9.191690  2
|1251>    2      0.172000       0.008301  2
|1252>   p 2
|1253>    1      0.860000      17.997720  2
|1254>    2      0.172000      -0.032600  2
|1255>   d 2
|1256>    1      1.600000      -9.504310  2
|1257>    2      0.320000      -0.151370  2
|1258>   f 1
|1259>    1      1.000000000    0.000000000 2
|1260> end
|1261> Ti>    4.00000000000   -3.25401964873    5.92218707193   -7.78013072764
|1262> NewECP
|1263> N_core 0
|1264>   lmax f
|1265>   s 2
|1266>    1      0.860000       9.191690  2
|1267>    2      0.172000       0.008301  2
|1268>   p 2
|1269>    1      0.860000      17.997720  2
|1270>    2      0.172000      -0.032600  2
|1271>   d 2
|1272>    1      1.600000      -9.504310  2
|1273>    2      0.320000      -0.151370  2
|1274>   f 1
|1275>    1      1.000000000    0.000000000 2
|1276> end
|1277> Ti>    4.00000000000    3.25401964873    5.92218707193   -7.78013072764
|1278> NewECP
|1279> N_core 0
|1280>   lmax f
|1281>   s 2
|1282>    1      0.860000       9.191690  2
|1283>    2      0.172000       0.008301  2
|1284>   p 2
|1285>    1      0.860000      17.997720  2
|1286>    2      0.172000      -0.032600  2
|1287>   d 2
|1288>    1      1.600000      -9.504310  2
|1289>    2      0.320000      -0.151370  2
|1290>   f 1
|1291>    1      1.000000000    0.000000000 2
|1292> end
|1293> Ti>    4.00000000000    3.25401964873   -5.92218707193   -7.78013072764
|1294> NewECP
|1295> N_core 0
|1296>   lmax f
|1297>   s 2
|1298>    1      0.860000       9.191690  2
|1299>    2      0.172000       0.008301  2
|1300>   p 2
|1301>    1      0.860000      17.997720  2
|1302>    2      0.172000      -0.032600  2
|1303>   d 2
|1304>    1      1.600000      -9.504310  2
|1305>    2      0.320000      -0.151370  2
|1306>   f 1
|1307>    1      1.000000000    0.000000000 2
|1308> end
|1309> Ti>    4.00000000000   -3.25401964873   -5.92218707193   -7.78013072764
|1310> NewECP
|1311> N_core 0
|1312>   lmax f
|1313>   s 2
|1314>    1      0.860000       9.191690  2
|1315>    2      0.172000       0.008301  2
|1316>   p 2
|1317>    1      0.860000      17.997720  2
|1318>    2      0.172000      -0.032600  2
|1319>   d 2
|1320>    1      1.600000      -9.504310  2
|1321>    2      0.320000      -0.151370  2
|1322>   f 1
|1323>    1      1.000000000    0.000000000 2
|1324> end
|1325> Ti>    4.00000000000    0.00000000000    5.92218707193    8.48996751602
|1326> NewECP
|1327> N_core 0
|1328>   lmax f
|1329>   s 2
|1330>    1      0.860000       9.191690  2
|1331>    2      0.172000       0.008301  2
|1332>   p 2
|1333>    1      0.860000      17.997720  2
|1334>    2      0.172000      -0.032600  2
|1335>   d 2
|1336>    1      1.600000      -9.504310  2
|1337>    2      0.320000      -0.151370  2
|1338>   f 1
|1339>    1      1.000000000    0.000000000 2
|1340> end
|1341> Ti>    4.00000000000    0.00000000000   -5.92218707193    8.48996751602
|1342> NewECP
|1343> N_core 0
|1344>   lmax f
|1345>   s 2
|1346>    1      0.860000       9.191690  2
|1347>    2      0.172000       0.008301  2
|1348>   p 2
|1349>    1      0.860000      17.997720  2
|1350>    2      0.172000      -0.032600  2
|1351>   d 2
|1352>    1      1.600000      -9.504310  2
|1353>    2      0.320000      -0.151370  2
|1354>   f 1
|1355>    1      1.000000000    0.000000000 2
|1356> end
|1357> Ti>    4.00000000000    0.00000000000   10.36382737587   -1.27209143018
|1358> NewECP
|1359> N_core 0
|1360>   lmax f
|1361>   s 2
|1362>    1      0.860000       9.191690  2
|1363>    2      0.172000       0.008301  2
|1364>   p 2
|1365>    1      0.860000      17.997720  2
|1366>    2      0.172000      -0.032600  2
|1367>   d 2
|1368>    1      1.600000      -9.504310  2
|1369>    2      0.320000      -0.151370  2
|1370>   f 1
|1371>    1      1.000000000    0.000000000 2
|1372> end
|1373> Ti>    4.00000000000    0.00000000000  -10.36382737587   -1.27209143018
|1374> NewECP
|1375> N_core 0
|1376>   lmax f
|1377>   s 2
|1378>    1      0.860000       9.191690  2
|1379>    2      0.172000       0.008301  2
|1380>   p 2
|1381>    1      0.860000      17.997720  2
|1382>    2      0.172000      -0.032600  2
|1383>   d 2
|1384>    1      1.600000      -9.504310  2
|1385>    2      0.320000      -0.151370  2
|1386>   f 1
|1387>    1      1.000000000    0.000000000 2
|1388> end
|1389> Ti>    4.00000000000   -6.50803929747    0.00000000000    8.48996751602
|1390> NewECP
|1391> N_core 0
|1392>   lmax f
|1393>   s 2
|1394>    1      0.860000       9.191690  2
|1395>    2      0.172000       0.008301  2
|1396>   p 2
|1397>    1      0.860000      17.997720  2
|1398>    2      0.172000      -0.032600  2
|1399>   d 2
|1400>    1      1.600000      -9.504310  2
|1401>    2      0.320000      -0.151370  2
|1402>   f 1
|1403>    1      1.000000000    0.000000000 2
|1404> end
|1405> Ti>    4.00000000000    6.50803929747    0.00000000000    8.48996751602
|1406> NewECP
|1407> N_core 0
|1408>   lmax f
|1409>   s 2
|1410>    1      0.860000       9.191690  2
|1411>    2      0.172000       0.008301  2
|1412>   p 2
|1413>    1      0.860000      17.997720  2
|1414>    2      0.172000      -0.032600  2
|1415>   d 2
|1416>    1      1.600000      -9.504310  2
|1417>    2      0.320000      -0.151370  2
|1418>   f 1
|1419>    1      1.000000000    0.000000000 2
|1420> end
|1421> Ti>    4.00000000000    0.00000000000    7.40273383991   -7.78013072764
|1422> NewECP
|1423> N_core 0
|1424>   lmax f
|1425>   s 2
|1426>    1      0.860000       9.191690  2
|1427>    2      0.172000       0.008301  2
|1428>   p 2
|1429>    1      0.860000      17.997720  2
|1430>    2      0.172000      -0.032600  2
|1431>   d 2
|1432>    1      1.600000      -9.504310  2
|1433>    2      0.320000      -0.151370  2
|1434>   f 1
|1435>    1      1.000000000    0.000000000 2
|1436> end
|1437> Ti>    4.00000000000    0.00000000000   -7.40273383991   -7.78013072764
|1438> NewECP
|1439> N_core 0
|1440>   lmax f
|1441>   s 2
|1442>    1      0.860000       9.191690  2
|1443>    2      0.172000       0.008301  2
|1444>   p 2
|1445>    1      0.860000      17.997720  2
|1446>    2      0.172000      -0.032600  2
|1447>   d 2
|1448>    1      1.600000      -9.504310  2
|1449>    2      0.320000      -0.151370  2
|1450>   f 1
|1451>    1      1.000000000    0.000000000 2
|1452> end
|1453> Ti>    4.00000000000   -3.25401964873    8.88328060789    5.23594786729
|1454> NewECP
|1455> N_core 0
|1456>   lmax f
|1457>   s 2
|1458>    1      0.860000       9.191690  2
|1459>    2      0.172000       0.008301  2
|1460>   p 2
|1461>    1      0.860000      17.997720  2
|1462>    2      0.172000      -0.032600  2
|1463>   d 2
|1464>    1      1.600000      -9.504310  2
|1465>    2      0.320000      -0.151370  2
|1466>   f 1
|1467>    1      1.000000000    0.000000000 2
|1468> end
|1469> Ti>    4.00000000000    3.25401964873    8.88328060789    5.23594786729
|1470> NewECP
|1471> N_core 0
|1472>   lmax f
|1473>   s 2
|1474>    1      0.860000       9.191690  2
|1475>    2      0.172000       0.008301  2
|1476>   p 2
|1477>    1      0.860000      17.997720  2
|1478>    2      0.172000      -0.032600  2
|1479>   d 2
|1480>    1      1.600000      -9.504310  2
|1481>    2      0.320000      -0.151370  2
|1482>   f 1
|1483>    1      1.000000000    0.000000000 2
|1484> end
|1485> Ti>    4.00000000000    3.25401964873   -8.88328060789    5.23594786729
|1486> NewECP
|1487> N_core 0
|1488>   lmax f
|1489>   s 2
|1490>    1      0.860000       9.191690  2
|1491>    2      0.172000       0.008301  2
|1492>   p 2
|1493>    1      0.860000      17.997720  2
|1494>    2      0.172000      -0.032600  2
|1495>   d 2
|1496>    1      1.600000      -9.504310  2
|1497>    2      0.320000      -0.151370  2
|1498>   f 1
|1499>    1      1.000000000    0.000000000 2
|1500> end
|1501> Ti>    4.00000000000   -3.25401964873   -8.88328060789    5.23594786729
|1502> NewECP
|1503> N_core 0
|1504>   lmax f
|1505>   s 2
|1506>    1      0.860000       9.191690  2
|1507>    2      0.172000       0.008301  2
|1508>   p 2
|1509>    1      0.860000      17.997720  2
|1510>    2      0.172000      -0.032600  2
|1511>   d 2
|1512>    1      1.600000      -9.504310  2
|1513>    2      0.320000      -0.151370  2
|1514>   f 1
|1515>    1      1.000000000    0.000000000 2
|1516> end
|1517> Ti>    4.00000000000   -9.76205894620    1.48054676798   -4.52611107891
|1518> NewECP
|1519> N_core 0
|1520>   lmax f
|1521>   s 2
|1522>    1      0.860000       9.191690  2
|1523>    2      0.172000       0.008301  2
|1524>   p 2
|1525>    1      0.860000      17.997720  2
|1526>    2      0.172000      -0.032600  2
|1527>   d 2
|1528>    1      1.600000      -9.504310  2
|1529>    2      0.320000      -0.151370  2
|1530>   f 1
|1531>    1      1.000000000    0.000000000 2
|1532> end
|1533> Ti>    4.00000000000    9.76205894620    1.48054676798   -4.52611107891
|1534> NewECP
|1535> N_core 0
|1536>   lmax f
|1537>   s 2
|1538>    1      0.860000       9.191690  2
|1539>    2      0.172000       0.008301  2
|1540>   p 2
|1541>    1      0.860000      17.997720  2
|1542>    2      0.172000      -0.032600  2
|1543>   d 2
|1544>    1      1.600000      -9.504310  2
|1545>    2      0.320000      -0.151370  2
|1546>   f 1
|1547>    1      1.000000000    0.000000000 2
|1548> end
|1549> Ti>    4.00000000000    9.76205894620   -1.48054676798   -4.52611107891
|1550> NewECP
|1551> N_core 0
|1552>   lmax f
|1553>   s 2
|1554>    1      0.860000       9.191690  2
|1555>    2      0.172000       0.008301  2
|1556>   p 2
|1557>    1      0.860000      17.997720  2
|1558>    2      0.172000      -0.032600  2
|1559>   d 2
|1560>    1      1.600000      -9.504310  2
|1561>    2      0.320000      -0.151370  2
|1562>   f 1
|1563>    1      1.000000000    0.000000000 2
|1564> end
|1565> Ti>    4.00000000000   -9.76205894620   -1.48054676798   -4.52611107891
|1566> NewECP
|1567> N_core 0
|1568>   lmax f
|1569>   s 2
|1570>    1      0.860000       9.191690  2
|1571>    2      0.172000       0.008301  2
|1572>   p 2
|1573>    1      0.860000      17.997720  2
|1574>    2      0.172000      -0.032600  2
|1575>   d 2
|1576>    1      1.600000      -9.504310  2
|1577>    2      0.320000      -0.151370  2
|1578>   f 1
|1579>    1      1.000000000    0.000000000 2
|1580> end
|1581> Ti>    4.00000000000   -9.76205894620    4.44164030394    1.98192821856
|1582> NewECP
|1583> N_core 0
|1584>   lmax f
|1585>   s 2
|1586>    1      0.860000       9.191690  2
|1587>    2      0.172000       0.008301  2
|1588>   p 2
|1589>    1      0.860000      17.997720  2
|1590>    2      0.172000      -0.032600  2
|1591>   d 2
|1592>    1      1.600000      -9.504310  2
|1593>    2      0.320000      -0.151370  2
|1594>   f 1
|1595>    1      1.000000000    0.000000000 2
|1596> end
|1597> Ti>    4.00000000000    9.76205894620    4.44164030394    1.98192821856
|1598> NewECP
|1599> N_core 0
|1600>   lmax f
|1601>   s 2
|1602>    1      0.860000       9.191690  2
|1603>    2      0.172000       0.008301  2
|1604>   p 2
|1605>    1      0.860000      17.997720  2
|1606>    2      0.172000      -0.032600  2
|1607>   d 2
|1608>    1      1.600000      -9.504310  2
|1609>    2      0.320000      -0.151370  2
|1610>   f 1
|1611>    1      1.000000000    0.000000000 2
|1612> end
|1613> Ti>    4.00000000000    9.76205894620   -4.44164030394    1.98192821856
|1614> NewECP
|1615> N_core 0
|1616>   lmax f
|1617>   s 2
|1618>    1      0.860000       9.191690  2
|1619>    2      0.172000       0.008301  2
|1620>   p 2
|1621>    1      0.860000      17.997720  2
|1622>    2      0.172000      -0.032600  2
|1623>   d 2
|1624>    1      1.600000      -9.504310  2
|1625>    2      0.320000      -0.151370  2
|1626>   f 1
|1627>    1      1.000000000    0.000000000 2
|1628> end
|1629> Ti>    4.00000000000   -9.76205894620   -4.44164030394    1.98192821856
|1630> NewECP
|1631> N_core 0
|1632>   lmax f
|1633>   s 2
|1634>    1      0.860000       9.191690  2
|1635>    2      0.172000       0.008301  2
|1636>   p 2
|1637>    1      0.860000      17.997720  2
|1638>    2      0.172000      -0.032600  2
|1639>   d 2
|1640>    1      1.600000      -9.504310  2
|1641>    2      0.320000      -0.151370  2
|1642>   f 1
|1643>    1      1.000000000    0.000000000 2
|1644> end
|1645> Ti>    4.00000000000    0.00000000000    0.00000000000  -11.03415037637
|1646> NewECP
|1647> N_core 0
|1648>   lmax f
|1649>   s 2
|1650>    1      0.860000       9.191690  2
|1651>    2      0.172000       0.008301  2
|1652>   p 2
|1653>    1      0.860000      17.997720  2
|1654>    2      0.172000      -0.032600  2
|1655>   d 2
|1656>    1      1.600000      -9.504310  2
|1657>    2      0.320000      -0.151370  2
|1658>   f 1
|1659>    1      1.000000000    0.000000000 2
|1660> end
|1661> Ti>    4.00000000000   -3.25401964873   10.36382737587    1.98192821856
|1662> NewECP
|1663> N_core 0
|1664>   lmax f
|1665>   s 2
|1666>    1      0.860000       9.191690  2
|1667>    2      0.172000       0.008301  2
|1668>   p 2
|1669>    1      0.860000      17.997720  2
|1670>    2      0.172000      -0.032600  2
|1671>   d 2
|1672>    1      1.600000      -9.504310  2
|1673>    2      0.320000      -0.151370  2
|1674>   f 1
|1675>    1      1.000000000    0.000000000 2
|1676> end
|1677> Ti>    4.00000000000    3.25401964873   10.36382737587    1.98192821856
|1678> NewECP
|1679> N_core 0
|1680>   lmax f
|1681>   s 2
|1682>    1      0.860000       9.191690  2
|1683>    2      0.172000       0.008301  2
|1684>   p 2
|1685>    1      0.860000      17.997720  2
|1686>    2      0.172000      -0.032600  2
|1687>   d 2
|1688>    1      1.600000      -9.504310  2
|1689>    2      0.320000      -0.151370  2
|1690>   f 1
|1691>    1      1.000000000    0.000000000 2
|1692> end
|1693> Ti>    4.00000000000    3.25401964873  -10.36382737587    1.98192821856
|1694> NewECP
|1695> N_core 0
|1696>   lmax f
|1697>   s 2
|1698>    1      0.860000       9.191690  2
|1699>    2      0.172000       0.008301  2
|1700>   p 2
|1701>    1      0.860000      17.997720  2
|1702>    2      0.172000      -0.032600  2
|1703>   d 2
|1704>    1      1.600000      -9.504310  2
|1705>    2      0.320000      -0.151370  2
|1706>   f 1
|1707>    1      1.000000000    0.000000000 2
|1708> end
|1709> Ti>    4.00000000000   -3.25401964873  -10.36382737587    1.98192821856
|1710> NewECP
|1711> N_core 0
|1712>   lmax f
|1713>   s 2
|1714>    1      0.860000       9.191690  2
|1715>    2      0.172000       0.008301  2
|1716>   p 2
|1717>    1      0.860000      17.997720  2
|1718>    2      0.172000      -0.032600  2
|1719>   d 2
|1720>    1      1.600000      -9.504310  2
|1721>    2      0.320000      -0.151370  2
|1722>   f 1
|1723>    1      1.000000000    0.000000000 2
|1724> end
|1725> Ti>    4.00000000000   -6.50803929747    4.44164030394   -7.78013072764
|1726> NewECP
|1727> N_core 0
|1728>   lmax f
|1729>   s 2
|1730>    1      0.860000       9.191690  2
|1731>    2      0.172000       0.008301  2
|1732>   p 2
|1733>    1      0.860000      17.997720  2
|1734>    2      0.172000      -0.032600  2
|1735>   d 2
|1736>    1      1.600000      -9.504310  2
|1737>    2      0.320000      -0.151370  2
|1738>   f 1
|1739>    1      1.000000000    0.000000000 2
|1740> end
|1741> Ti>    4.00000000000    6.50803929747    4.44164030394   -7.78013072764
|1742> NewECP
|1743> N_core 0
|1744>   lmax f
|1745>   s 2
|1746>    1      0.860000       9.191690  2
|1747>    2      0.172000       0.008301  2
|1748>   p 2
|1749>    1      0.860000      17.997720  2
|1750>    2      0.172000      -0.032600  2
|1751>   d 2
|1752>    1      1.600000      -9.504310  2
|1753>    2      0.320000      -0.151370  2
|1754>   f 1
|1755>    1      1.000000000    0.000000000 2
|1756> end
|1757> Ti>    4.00000000000    6.50803929747   -4.44164030394   -7.78013072764
|1758> NewECP
|1759> N_core 0
|1760>   lmax f
|1761>   s 2
|1762>    1      0.860000       9.191690  2
|1763>    2      0.172000       0.008301  2
|1764>   p 2
|1765>    1      0.860000      17.997720  2
|1766>    2      0.172000      -0.032600  2
|1767>   d 2
|1768>    1      1.600000      -9.504310  2
|1769>    2      0.320000      -0.151370  2
|1770>   f 1
|1771>    1      1.000000000    0.000000000 2
|1772> end
|1773> Ti>    4.00000000000   -6.50803929747   -4.44164030394   -7.78013072764
|1774> NewECP
|1775> N_core 0
|1776>   lmax f
|1777>   s 2
|1778>    1      0.860000       9.191690  2
|1779>    2      0.172000       0.008301  2
|1780>   p 2
|1781>    1      0.860000      17.997720  2
|1782>    2      0.172000      -0.032600  2
|1783>   d 2
|1784>    1      1.600000      -9.504310  2
|1785>    2      0.320000      -0.151370  2
|1786>   f 1
|1787>    1      1.000000000    0.000000000 2
|1788> end
|1789> Ti>    4.00000000000   -9.76205894620    0.00000000000    5.23594786729
|1790> NewECP
|1791> N_core 0
|1792>   lmax f
|1793>   s 2
|1794>    1      0.860000       9.191690  2
|1795>    2      0.172000       0.008301  2
|1796>   p 2
|1797>    1      0.860000      17.997720  2
|1798>    2      0.172000      -0.032600  2
|1799>   d 2
|1800>    1      1.600000      -9.504310  2
|1801>    2      0.320000      -0.151370  2
|1802>   f 1
|1803>    1      1.000000000    0.000000000 2
|1804> end
|1805> Ti>    4.00000000000    9.76205894620    0.00000000000    5.23594786729
|1806> NewECP
|1807> N_core 0
|1808>   lmax f
|1809>   s 2
|1810>    1      0.860000       9.191690  2
|1811>    2      0.172000       0.008301  2
|1812>   p 2
|1813>    1      0.860000      17.997720  2
|1814>    2      0.172000      -0.032600  2
|1815>   d 2
|1816>    1      1.600000      -9.504310  2
|1817>    2      0.320000      -0.151370  2
|1818>   f 1
|1819>    1      1.000000000    0.000000000 2
|1820> end
|1821> Ti>    4.00000000000   -6.50803929747    2.96109353596    8.48996751602
|1822> NewECP
|1823> N_core 0
|1824>   lmax f
|1825>   s 2
|1826>    1      0.860000       9.191690  2
|1827>    2      0.172000       0.008301  2
|1828>   p 2
|1829>    1      0.860000      17.997720  2
|1830>    2      0.172000      -0.032600  2
|1831>   d 2
|1832>    1      1.600000      -9.504310  2
|1833>    2      0.320000      -0.151370  2
|1834>   f 1
|1835>    1      1.000000000    0.000000000 2
|1836> end
|1837> Ti>    4.00000000000    6.50803929747    2.96109353596    8.48996751602
|1838> NewECP
|1839> N_core 0
|1840>   lmax f
|1841>   s 2
|1842>    1      0.860000       9.191690  2
|1843>    2      0.172000       0.008301  2
|1844>   p 2
|1845>    1      0.860000      17.997720  2
|1846>    2      0.172000      -0.032600  2
|1847>   d 2
|1848>    1      1.600000      -9.504310  2
|1849>    2      0.320000      -0.151370  2
|1850>   f 1
|1851>    1      1.000000000    0.000000000 2
|1852> end
|1853> Ti>    4.00000000000    6.50803929747   -2.96109353596    8.48996751602
|1854> NewECP
|1855> N_core 0
|1856>   lmax f
|1857>   s 2
|1858>    1      0.860000       9.191690  2
|1859>    2      0.172000       0.008301  2
|1860>   p 2
|1861>    1      0.860000      17.997720  2
|1862>    2      0.172000      -0.032600  2
|1863>   d 2
|1864>    1      1.600000      -9.504310  2
|1865>    2      0.320000      -0.151370  2
|1866>   f 1
|1867>    1      1.000000000    0.000000000 2
|1868> end
|1869> Ti>    4.00000000000   -6.50803929747   -2.96109353596    8.48996751602
|1870> NewECP
|1871> N_core 0
|1872>   lmax f
|1873>   s 2
|1874>    1      0.860000       9.191690  2
|1875>    2      0.172000       0.008301  2
|1876>   p 2
|1877>    1      0.860000      17.997720  2
|1878>    2      0.172000      -0.032600  2
|1879>   d 2
|1880>    1      1.600000      -9.504310  2
|1881>    2      0.320000      -0.151370  2
|1882>   f 1
|1883>    1      1.000000000    0.000000000 2
|1884> end
|1885> Ti>    4.00000000000   -6.50803929747    7.40273383991    5.23594786729
|1886> NewECP
|1887> N_core 0
|1888>   lmax f
|1889>   s 2
|1890>    1      0.860000       9.191690  2
|1891>    2      0.172000       0.008301  2
|1892>   p 2
|1893>    1      0.860000      17.997720  2
[...]
589 Q      0.0000     4.0000     4.0000     0.0000     0.0000     0.0000
590 Q      0.0000     4.0000     4.0000     0.0000     0.0000     0.0000
591 Q      0.0000     4.0000     4.0000     0.0000     0.0000     0.0000
592 Q      0.0000     4.0000     4.0000     0.0000     0.0000     0.0000
593 Q      0.0000     4.0000     4.0000     0.0000     0.0000     0.0000
594 Q      0.0000     4.0000     4.0000     0.0000     0.0000     0.0000
595 Q      0.0000     4.0000     4.0000     0.0000     0.0000     0.0000
596 Q      0.0000     4.0000     4.0000     0.0000     0.0000     0.0000
597 Q      0.0000     4.0000     4.0000     0.0000     0.0000     0.0000
598 Q      0.0000     4.0000     4.0000     0.0000     0.0000     0.0000
599 Q      0.0000     4.0000     4.0000     0.0000     0.0000     0.0000
600 Q      0.0000     4.0000     4.0000     0.0000     0.0000     0.0000
601 Q      0.0000     4.0000     4.0000     0.0000     0.0000     0.0000
602 Q      0.0000     4.0000     4.0000     0.0000     0.0000     0.0000
603 Q      0.0000     4.0000     4.0000     0.0000     0.0000     0.0000
604 Q      0.0000     4.0000     4.0000     0.0000     0.0000     0.0000
605 Q      0.0000     4.0000     4.0000     0.0000     0.0000     0.0000
606 Q      0.0000     4.0000     4.0000     0.0000     0.0000     0.0000
607 Q      0.0000     4.0000     4.0000     0.0000     0.0000     0.0000
608 Q      0.0000     4.0000     4.0000     0.0000     0.0000     0.0000
609 Q      0.0000     4.0000     4.0000     0.0000     0.0000     0.0000
610 Q      0.0000     4.0000     4.0000     0.0000     0.0000     0.0000
611 Q      0.0000     4.0000     4.0000     0.0000     0.0000     0.0000
612 Q      0.0000     4.0000     4.0000     0.0000     0.0000     0.0000
613 Q      0.0000     4.0000     4.0000     0.0000     0.0000     0.0000
614 Q      0.0000     4.0000     4.0000     0.0000     0.0000     0.0000
615 Q      0.0000     4.0000     4.0000     0.0000     0.0000     0.0000
616 Q      0.0000     4.0000     4.0000     0.0000     0.0000     0.0000
617 Q      0.0000     4.0000     4.0000     0.0000     0.0000     0.0000
618 Q      0.0000     4.0000     4.0000     0.0000     0.0000     0.0000
619 Q      0.0000     4.0000     4.0000     0.0000     0.0000     0.0000
620 Q      0.0000     4.0000     4.0000     0.0000     0.0000     0.0000
621 Q      0.0000     4.0000     4.0000     0.0000     0.0000     0.0000
622 Q      0.0000     4.0000     4.0000     0.0000     0.0000     0.0000
623 Q      0.0000     4.0000     4.0000     0.0000     0.0000     0.0000
624 Q      0.0000     4.0000     4.0000     0.0000     0.0000     0.0000
625 Q      0.0000     4.0000     4.0000     0.0000     0.0000     0.0000
626 Q      0.0000     4.0000     4.0000     0.0000     0.0000     0.0000
627 Q      0.0000     4.0000     4.0000     0.0000     0.0000     0.0000
628 Q      0.0000     4.0000     4.0000     0.0000     0.0000     0.0000
629 Q      0.0000     4.0000     4.0000     0.0000     0.0000     0.0000
630 Q      0.0000     4.0000     4.0000     0.0000     0.0000     0.0000
631 Q      0.0000     4.0000     4.0000     0.0000     0.0000     0.0000
632 Q      0.0000     4.0000     4.0000     0.0000     0.0000     0.0000

  Mayer bond orders larger than 0.100000
B(  0-O ,  1-Ti) :   0.6994 B(  0-O ,  2-Ti) :   0.6994 B(  0-O ,  3-Ti) :   0.5196 
B(  1-Ti,  2-Ti) :   0.1649 B(  1-Ti,  4-O ) :   0.6591 B(  1-Ti,  9-O ) :   0.4132 
B(  1-Ti, 10-O ) :   0.4132 B(  1-Ti, 13-O ) :   0.5979 B(  1-Ti, 21-O ) :   0.5267 
B(  1-Ti, 41-Ti) :   0.1260 B(  2-Ti,  4-O ) :   0.6591 B(  2-Ti, 11-O ) :   0.4133 
B(  2-Ti, 12-O ) :   0.4133 B(  2-Ti, 14-O ) :   0.5979 B(  2-Ti, 22-O ) :   0.5268 
B(  2-Ti, 42-Ti) :   0.1260 B(  3-Ti,  5-O ) :   0.6119 B(  3-Ti,  6-O ) :   0.6119 
B(  3-Ti,  7-O ) :   0.6119 B(  3-Ti,  8-O ) :   0.6119 B(  3-Ti, 19-Ti) :   0.1514 
B(  3-Ti, 20-Ti) :   0.1514 B(  3-Ti, 23-O ) :   0.3331 B(  4-O , 32-Ti) :   0.6584 
B(  5-O , 19-Ti) :   0.7549 B(  5-O , 24-Ti) :   0.5971 B(  6-O , 19-Ti) :   0.7549 
B(  6-O , 25-Ti) :   0.5971 B(  7-O , 20-Ti) :   0.7549 B(  7-O , 26-Ti) :   0.5971 
B(  8-O , 20-Ti) :   0.7549 B(  8-O , 27-Ti) :   0.5972 B(  9-O , 17-Ti) :   0.7098 
B(  9-O , 33-Ti) :   0.8034 B( 10-O , 18-Ti) :   0.7098 B( 10-O , 34-Ti) :   0.8034 
B( 11-O , 18-Ti) :   0.7097 B( 11-O , 35-Ti) :   0.8034 B( 12-O , 17-Ti) :   0.7097 
B( 12-O , 36-Ti) :   0.8034 B( 13-O , 19-Ti) :   0.5667 B( 13-O , 41-Ti) :   0.8121 
B( 14-O , 20-Ti) :   0.5667 B( 14-O , 42-Ti) :   0.8121 B( 15-O , 17-Ti) :   0.4913 
B( 15-O , 24-Ti) :   0.7402 B( 15-O , 27-Ti) :   0.7402 B( 16-O , 18-Ti) :   0.4913 
B( 16-O , 25-Ti) :   0.7402 B( 16-O , 26-Ti) :   0.7402 B( 17-Ti, 33-Ti) :   0.1472 
B( 17-Ti, 36-Ti) :   0.1472 B( 17-Ti, 39-O ) :   0.3847 B( 17-Ti, 43-O ) :   0.5414 
B( 17-Ti, 46-O ) :   0.5415 B( 17-Ti,131-O ) :  -0.1088 B( 18-Ti, 34-Ti) :   0.1472 
B( 18-Ti, 35-Ti) :   0.1472 B( 18-Ti, 40-O ) :   0.3847 B( 18-Ti, 44-O ) :   0.5415 
B( 18-Ti, 45-O ) :   0.5415 B( 18-Ti,132-O ) :  -0.1088 B( 19-Ti, 51-O ) :   0.3986 
B( 19-Ti, 53-O ) :   0.5248 B( 19-Ti, 54-O ) :   0.5249 B( 19-Ti,141-O ) :  -0.1292 
B( 20-Ti, 52-O ) :   0.3986 B( 20-Ti, 55-O ) :   0.5249 B( 20-Ti, 56-O ) :   0.5249 
B( 20-Ti,142-O ) :  -0.1292 B( 21-O , 41-Ti) :   0.7543 B( 21-O , 61-Ti) :   0.7371 
B( 22-O , 42-Ti) :   0.7542 B( 22-O , 62-Ti) :   0.7371 B( 23-O , 63-Ti) :   0.7990 
B( 23-O , 64-Ti) :   0.7990 B( 24-Ti, 27-Ti) :   0.1626 B( 24-Ti, 28-O ) :   0.6123 
B( 24-Ti, 37-O ) :   0.6565 B( 24-Ti, 65-O ) :   0.5053 B( 24-Ti, 81-O ) :   0.3460 
B( 25-Ti, 26-Ti) :   0.1626 B( 25-Ti, 29-O ) :   0.6123 B( 25-Ti, 38-O ) :   0.6565 
B( 25-Ti, 66-O ) :   0.5053 B( 25-Ti, 82-O ) :   0.3460 B( 26-Ti, 30-O ) :   0.6123 
B( 26-Ti, 38-O ) :   0.6565 B( 26-Ti, 67-O ) :   0.5053 B( 26-Ti, 83-O ) :   0.3460 
B( 27-Ti, 31-O ) :   0.6123 B( 27-Ti, 37-O ) :   0.6565 B( 27-Ti, 68-O ) :   0.5053 
B( 27-Ti, 84-O ) :   0.3460 B( 28-O , 33-Ti) :   0.5693 B( 28-O , 85-Ti) :   0.8507 
B( 29-O , 34-Ti) :   0.5693 B( 29-O , 86-Ti) :   0.8507 B( 30-O , 35-Ti) :   0.5693 
B( 30-O , 87-Ti) :   0.8507 B( 31-O , 36-Ti) :   0.5693 B( 31-O , 88-Ti) :   0.8507 
B( 32-Ti, 47-O ) :   0.6176 B( 32-Ti, 48-O ) :   0.6176 B( 32-Ti, 49-O ) :   0.6176 
B( 32-Ti, 50-O ) :   0.6176 B( 32-Ti,108-O ) :   0.3450 B( 33-Ti, 43-O ) :   0.7138 
B( 33-Ti, 57-O ) :   0.6771 B( 33-Ti, 69-O ) :   0.4623 B( 33-Ti, 97-O ) :   0.4202 
B( 34-Ti, 44-O ) :   0.7138 B( 34-Ti, 58-O ) :   0.6771 B( 34-Ti, 70-O ) :   0.4622 
B( 34-Ti, 98-O ) :   0.4202 B( 35-Ti, 45-O ) :   0.7138 B( 35-Ti, 59-O ) :   0.6771 
B( 35-Ti, 71-O ) :   0.4623 B( 35-Ti, 99-O ) :   0.4202 B( 36-Ti, 46-O ) :   0.7138 
B( 36-Ti, 60-O ) :   0.6771 B( 36-Ti, 72-O ) :   0.4622 B( 36-Ti,100-O ) :   0.4201 
B( 37-O , 91-Ti) :   0.7246 B( 38-O , 92-Ti) :   0.7246 B( 39-O , 73-Ti) :   0.8084 
B( 39-O , 76-Ti) :   0.8084 B( 40-O , 74-Ti) :   0.8084 B( 40-O , 75-Ti) :   0.8084 
B( 41-Ti, 57-O ) :   0.5560 B( 41-Ti, 58-O ) :   0.5560 B( 41-Ti, 89-O ) :   0.5198 
B( 41-Ti, 95-O ) :   0.4532 B( 41-Ti,193-O ) :  -0.1084 B( 41-Ti,194-O ) :  -0.1084 
B( 42-Ti, 59-O ) :   0.5560 B( 42-Ti, 60-O ) :   0.5560 B( 42-Ti, 90-O ) :   0.5199 
B( 42-Ti, 96-O ) :   0.4532 B( 42-Ti,195-O ) :  -0.1084 B( 42-Ti,196-O ) :  -0.1084 
B( 43-O ,115-Ti) :   0.7471 B( 44-O ,116-Ti) :   0.7471 B( 45-O ,117-Ti) :   0.7471 
B( 46-O ,118-Ti) :   0.7471 B( 47-O , 61-Ti) :   0.7793 B( 47-O , 73-Ti) :   0.7378 
B( 48-O , 61-Ti) :   0.7793 B( 48-O , 74-Ti) :   0.7378 B( 49-O , 62-Ti) :   0.7793 
B( 49-O , 75-Ti) :   0.7378 B( 50-O , 62-Ti) :   0.7793 B( 50-O , 76-Ti) :   0.7378 
B( 51-O , 63-Ti) :   0.7371 B( 51-O ,125-Ti) :   0.9179 B( 52-O , 64-Ti) :   0.7370 
B( 52-O ,126-Ti) :   0.9179 B( 53-O , 85-Ti) :   0.7370 B( 53-O , 93-Ti) :   0.8085 
B( 54-O , 86-Ti) :   0.7370 B( 54-O , 93-Ti) :   0.8085 B( 55-O , 87-Ti) :   0.7370 
B( 55-O , 94-Ti) :   0.8085 B( 56-O , 88-Ti) :   0.7370 B( 56-O , 94-Ti) :   0.8085 
B( 57-O ,127-Ti) :   0.7948 B( 58-O ,128-Ti) :   0.7948 B( 59-O ,129-Ti) :   0.7948 
B( 60-O ,130-Ti) :   0.7948 B( 61-Ti,101-O ) :   0.7430 B( 61-Ti,102-O ) :   0.7430 
B( 61-Ti,161-O ) :   0.6674 B( 62-Ti,103-O ) :   0.7430 B( 62-Ti,104-O ) :   0.7430 
B( 62-Ti,162-O ) :   0.6674 B( 63-Ti, 77-O ) :   0.6597 B( 63-Ti, 78-O ) :   0.6597 
B( 63-Ti,105-O ) :   0.6951 B( 63-Ti,155-O ) :   0.7103 B( 64-Ti, 79-O ) :   0.6597 
B( 64-Ti, 80-O ) :   0.6597 B( 64-Ti,105-O ) :   0.6951 B( 64-Ti,156-O ) :   0.7103 
B( 65-O , 85-Ti) :   0.8231 B( 65-O ,121-Ti) :   0.7332 B( 66-O , 86-Ti) :   0.8231 
B( 66-O ,122-Ti) :   0.7332 B( 67-O , 87-Ti) :   0.8231 B( 67-O ,123-Ti) :   0.7332 
B( 68-O , 88-Ti) :   0.8231 B( 68-O ,124-Ti) :   0.7332 B( 69-O , 73-Ti) :   0.7704 
B( 69-O ,143-Ti) :   0.8625 B( 70-O , 74-Ti) :   0.7704 B( 70-O ,144-Ti) :   0.8626 
B( 71-O , 75-Ti) :   0.7704 B( 71-O ,145-Ti) :   0.8626 B( 72-O , 76-Ti) :   0.7704 
B( 72-O ,146-Ti) :   0.8626 B( 73-Ti,109-O ) :   0.6835 B( 73-Ti,137-O ) :   0.5494 
B( 73-Ti,163-O ) :   0.7725 B( 74-Ti,110-O ) :   0.6835 B( 74-Ti,138-O ) :   0.5494 
B( 74-Ti,164-O ) :   0.7725 B( 75-Ti,110-O ) :   0.6835 B( 75-Ti,139-O ) :   0.5494 
B( 75-Ti,165-O ) :   0.7725 B( 76-Ti,109-O ) :   0.6835 B( 76-Ti,140-O ) :   0.5494 
B( 76-Ti,166-O ) :   0.7725 B( 77-O , 91-Ti) :   0.7574 B( 77-O ,121-Ti) :   0.7758 
B( 78-O , 92-Ti) :   0.7574 B( 78-O ,122-Ti) :   0.7758 B( 79-O , 92-Ti) :   0.7574 
B( 79-O ,123-Ti) :   0.7758 B( 80-O , 91-Ti) :   0.7574 B( 80-O ,124-Ti) :   0.7758 
B( 81-O ,119-Ti) :   0.7761 B( 81-O ,167-Ti) :   0.8981 B( 82-O ,120-Ti) :   0.7761 
B( 82-O ,168-Ti) :   0.8981 B( 83-O ,120-Ti) :   0.7761 B( 83-O ,169-Ti) :   0.8981 
B( 84-O ,119-Ti) :   0.7761 B( 84-O ,170-Ti) :   0.8981 B( 85-Ti,111-O ) :   0.7001 
B( 85-Ti,151-O ) :   0.7178 B( 85-Ti,173-O ) :   0.6120 B( 85-Ti,227-Ti) :   0.1031 
B( 86-Ti,112-O ) :   0.7001 B( 86-Ti,152-O ) :   0.7178 B( 86-Ti,174-O ) :   0.6120 
B( 86-Ti,228-Ti) :   0.1031 B( 87-Ti,113-O ) :   0.7001 B( 87-Ti,153-O ) :   0.7178 
B( 87-Ti,175-O ) :   0.6120 B( 87-Ti,229-Ti) :   0.1031 B( 88-Ti,114-O ) :   0.7001 
B( 88-Ti,154-O ) :   0.7178 B( 88-Ti,176-O ) :   0.6120 B( 88-Ti,230-Ti) :   0.1031 
B( 89-O , 93-Ti) :   0.6940 B( 89-O ,181-Ti) :   0.8772 B( 90-O , 94-Ti) :   0.6940 
B( 90-O ,182-Ti) :   0.8772 B( 91-Ti,133-O ) :   0.6809 B( 91-Ti,136-O ) :   0.6809 
B( 91-Ti,197-O ) :   0.7334 B( 92-Ti,134-O ) :   0.6809 B( 92-Ti,135-O ) :   0.6809 
B( 92-Ti,198-O ) :   0.7334 B( 93-Ti,141-O ) :   0.7664 B( 93-Ti,189-O ) :   0.7463 
B( 93-Ti,190-O ) :   0.7463 B( 94-Ti,142-O ) :   0.7664 B( 94-Ti,191-O ) :   0.7463 
B( 94-Ti,192-O ) :   0.7463 B( 95-O ,171-Ti) :   0.7036 B( 95-O ,181-Ti) :   0.8895 
B( 96-O ,172-Ti) :   0.7035 B( 96-O ,182-Ti) :   0.8895 B( 97-O ,127-Ti) :   0.7197 
B( 97-O ,203-Ti) :   0.8569 B( 98-O ,128-Ti) :   0.7197 B( 98-O ,204-Ti) :   0.8569 
B( 99-O ,129-Ti) :   0.7197 B( 99-O ,205-Ti) :   0.8569 B(100-O ,130-Ti) :   0.7197 
B(100-O ,206-Ti) :   0.8569 B(101-O ,143-Ti) :   0.6841 B(101-O ,171-Ti) :   0.7000 
B(102-O ,144-Ti) :   0.6841 B(102-O ,171-Ti) :   0.7000 B(103-O ,145-Ti) :   0.6841 
B(103-O ,172-Ti) :   0.7000 B(104-O ,146-Ti) :   0.6841 B(104-O ,172-Ti) :   0.7000 
B(105-O ,245-Ti) :   0.7019 B(106-O ,115-Ti) :   0.7527 B(106-O ,118-Ti) :   0.7527 
B(106-O ,119-Ti) :   0.7050 B(107-O ,116-Ti) :   0.7527 B(107-O ,117-Ti) :   0.7527 
B(107-O ,120-Ti) :   0.7050 B(108-O ,199-Ti) :   0.8502 B(108-O ,200-Ti) :   0.8502 
B(109-O ,231-Ti) :   0.7563 B(110-O ,232-Ti) :   0.7563 B(111-O ,127-Ti) :   0.6069 
B(111-O ,227-Ti) :   0.8707 B(112-O ,128-Ti) :   0.6069 B(112-O ,228-Ti) :   0.8707 
B(113-O ,129-Ti) :   0.6069 B(113-O ,229-Ti) :   0.8707 B(114-O ,130-Ti) :   0.6069 
B(114-O ,230-Ti) :   0.8707 B(115-Ti,131-O ) :   0.7149 B(115-Ti,157-O ) :   0.6877 
B(115-Ti,183-O ) :   0.6477 B(115-Ti,254-O ) :   0.7958 B(116-Ti,132-O ) :   0.7149 
B(116-Ti,158-O ) :   0.6877 B(116-Ti,184-O ) :   0.6477 B(116-Ti,255-O ) :   0.7958 
B(117-Ti,132-O ) :   0.7148 B(117-Ti,159-O ) :   0.6877 B(117-Ti,185-O ) :   0.6477 
B(117-Ti,256-O ) :   0.7958 B(118-Ti,131-O ) :   0.7149 B(118-Ti,160-O ) :   0.6877 
B(118-Ti,186-O ) :   0.6477 B(118-Ti,257-O ) :   0.7958 B(119-Ti,187-O ) :   0.5844 
B(119-Ti,207-O ) :   0.7956 B(119-Ti,210-O ) :   0.7955 B(120-Ti,188-O ) :   0.5844 
B(120-Ti,208-O ) :   0.7955 B(120-Ti,209-O ) :   0.7955 B(121-Ti,133-O ) :   0.7100 
B(121-Ti,147-O ) :   0.6860 B(121-Ti,219-O ) :   0.6677 B(121-Ti,233-O ) :   0.7565 
B(122-Ti,134-O ) :   0.7100 B(122-Ti,148-O ) :   0.6860 B(122-Ti,220-O ) :   0.6677 
B(122-Ti,234-O ) :   0.7565 B(123-Ti,135-O ) :   0.7100 B(123-Ti,149-O ) :   0.6860 
B(123-Ti,221-O ) :   0.6677 B(123-Ti,235-O ) :   0.7565 B(124-Ti,136-O ) :   0.7100 
B(124-Ti,150-O ) :   0.6860 B(124-Ti,222-O ) :   0.6677 B(124-Ti,236-O ) :   0.7565 
B(125-Ti,141-O ) :   0.8308 B(125-Ti,147-O ) :   0.6121 B(125-Ti,148-O ) :   0.6121 
B(125-Ti,155-O ) :   0.7724 B(126-Ti,142-O ) :   0.8308 B(126-Ti,149-O ) :   0.6121 
B(126-Ti,150-O ) :   0.6121 B(126-Ti,156-O ) :   0.7724 B(127-Ti,177-O ) :   0.7182 
B(127-Ti,193-O ) :   0.8192 B(127-Ti,258-O ) :   0.9166 B(128-Ti,178-O ) :   0.7182 
B(128-Ti,194-O ) :   0.8192 B(128-Ti,259-O ) :   0.9166 B(129-Ti,179-O ) :   0.7182 
B(129-Ti,195-O ) :   0.8192 B(129-Ti,260-O ) :   0.9166 B(130-Ti,180-O ) :   0.7182 
B(130-Ti,196-O ) :   0.8192 B(130-Ti,261-O ) :   0.9166 B(131-O ,201-Ti) :   0.7732 
B(132-O ,202-Ti) :   0.7732 B(133-O ,241-Ti) :   0.7825 B(134-O ,242-Ti) :   0.7825 
B(135-O ,243-Ti) :   0.7825 B(136-O ,244-Ti) :   0.7825 B(137-O ,201-Ti) :   0.7851 
B(137-O ,237-Ti) :   0.7874 B(138-O ,202-Ti) :   0.7851 B(138-O ,238-Ti) :   0.7874 
B(139-O ,202-Ti) :   0.7851 B(139-O ,239-Ti) :   0.7874 B(140-O ,201-Ti) :   0.7851 
B(140-O ,240-Ti) :   0.7874 B(143-Ti,163-O ) :   0.7577 B(143-Ti,177-O ) :   0.8037 
B(143-Ti,223-O ) :   0.6530 B(144-Ti,164-O ) :   0.7577 B(144-Ti,178-O ) :   0.8037 
B(144-Ti,224-O ) :   0.6530 B(145-Ti,165-O ) :   0.7577 B(145-Ti,179-O ) :   0.8037 
B(145-Ti,225-O ) :   0.6530 B(146-Ti,166-O ) :   0.7577 B(146-Ti,180-O ) :   0.8037 
B(146-Ti,226-O ) :   0.6530 B(147-O ,246-Ti) :   0.8617 B(148-O ,247-Ti) :   0.8617 
B(149-O ,248-Ti) :   0.8617 B(150-O ,249-Ti) :   0.8617 B(151-O ,167-Ti) :   0.8242 
B(152-O ,168-Ti) :   0.8242 B(153-O ,169-Ti) :   0.8242 B(154-O ,170-Ti) :   0.8242 
B(157-O ,167-Ti) :   0.6152 B(157-O ,203-Ti) :   0.8772 B(158-O ,168-Ti) :   0.6152 
B(158-O ,204-Ti) :   0.8772 B(159-O ,169-Ti) :   0.6152 B(159-O ,205-Ti) :   0.8772 
B(160-O ,170-Ti) :   0.6152 B(160-O ,206-Ti) :   0.8772 B(161-O ,199-Ti) :   0.8212 
B(162-O ,200-Ti) :   0.8212 B(167-Ti,207-O ) :   0.7593 B(167-Ti,215-O ) :   0.6322 
B(168-Ti,208-O ) :   0.7593 B(168-Ti,216-O ) :   0.6322 B(169-Ti,209-O ) :   0.7593 
B(169-Ti,217-O ) :   0.6322 B(170-Ti,210-O ) :   0.7593 B(170-Ti,218-O ) :   0.6322 
B(171-Ti,262-O ) :   0.8459 B(171-Ti,263-O ) :   0.8459 B(172-Ti,264-O ) :   0.8459 
B(172-Ti,265-O ) :   0.8459 B(173-O ,227-Ti) :   0.7936 B(173-O ,246-Ti) :   0.6909 
B(174-O ,228-Ti) :   0.7936 B(174-O ,247-Ti) :   0.6909 B(175-O ,229-Ti) :   0.7936 
B(175-O ,248-Ti) :   0.6909 B(176-O ,230-Ti) :   0.7936 B(176-O ,249-Ti) :   0.6909 
B(181-Ti,193-O ) :   0.7584 B(181-Ti,194-O ) :   0.7584 B(182-Ti,195-O ) :   0.7584 
B(182-Ti,196-O ) :   0.7584 B(183-O ,203-Ti) :   0.8505 B(183-O ,237-Ti) :   0.6791 
B(184-O ,204-Ti) :   0.8505 B(184-O ,238-Ti) :   0.6791 B(185-O ,205-Ti) :   0.8505 
B(185-O ,239-Ti) :   0.6791 B(186-O ,206-Ti) :   0.8505 B(186-O ,240-Ti) :   0.6791 
B(187-O ,241-Ti) :   0.7732 B(187-O ,244-Ti) :   0.7732 B(188-O ,242-Ti) :   0.7732 
B(188-O ,243-Ti) :   0.7732 B(189-O ,227-Ti) :   0.8093 B(190-O ,228-Ti) :   0.8093 
B(191-O ,229-Ti) :   0.8093 B(192-O ,230-Ti) :   0.8093 B(199-Ti,211-O ) :   0.6286 
B(199-Ti,212-O ) :   0.6286 B(199-Ti,266-O ) :   0.7961 B(200-Ti,213-O ) :   0.6286 
B(200-Ti,214-O ) :   0.6286 B(200-Ti,266-O ) :   0.7961 B(211-O ,231-Ti) :   0.8717 
B(212-O ,232-Ti) :   0.8717 B(213-O ,232-Ti) :   0.8717 B(214-O ,231-Ti) :   0.8717 
B(215-O ,241-Ti) :   0.8730 B(216-O ,242-Ti) :   0.8730 B(217-O ,243-Ti) :   0.8730 
B(218-O ,244-Ti) :   0.8730 B(219-O ,246-Ti) :   0.8976 B(220-O ,247-Ti) :   0.8976 
B(221-O ,248-Ti) :   0.8976 B(222-O ,249-Ti) :   0.8976 B(223-O ,237-Ti) :   0.9210 
B(224-O ,238-Ti) :   0.9210 B(225-O ,239-Ti) :   0.9210 B(226-O ,240-Ti) :   0.9210 
B(245-Ti,250-O ) :   0.7790 B(245-Ti,251-O ) :   0.7790 B(245-Ti,252-O ) :   0.7790 
B(245-Ti,253-O ) :   0.7790 

-------
TIMINGS
-------

Total SCF time: 0 days 1 hours 29 min 0 sec 

Total time                  ....    5340.679 sec
Sum of individual times     ....    5197.946 sec  ( 97.3%)

Fock matrix formation       ....    4322.608 sec  ( 80.9%)
  XC integration            ....     707.858 sec  ( 16.4% of F)
    Basis function eval.    ....     140.348 sec  ( 19.8% of XC)
    Density eval.           ....     388.783 sec  ( 54.9% of XC)
    XC-Functional eval.     ....       6.720 sec  (  0.9% of XC)
    XC-Potential eval.      ....     118.498 sec  ( 16.7% of XC)
Diagonalization             ....     361.743 sec  (  6.8%)
Density matrix formation    ....      74.437 sec  (  1.4%)
Population analysis         ....      17.590 sec  (  0.3%)
Initial guess               ....      27.718 sec  (  0.5%)
Orbital Transformation      ....       0.000 sec  (  0.0%)
Orbital Orthonormalization  ....       0.000 sec  (  0.0%)
DIIS solution               ....     332.991 sec  (  6.2%)
Grid generation             ....      60.859 sec  (  1.1%)

Maximum memory used throughout the entire SCF-calculation: 2985.0 MB

-------------------------   --------------------
FINAL SINGLE POINT ENERGY   -132642.467338046059
-------------------------   --------------------


                            ***************************************
                            *     ORCA property calculations      *
                            ***************************************

                                    ---------------------
                                    Active property flags
                                    ---------------------
   (+) Dipole Moment


------------------------------------------------------------------------------
                       ORCA ELECTRIC PROPERTIES CALCULATION
------------------------------------------------------------------------------

Dipole Moment Calculation                       ... on
Quadrupole Moment Calculation                   ... off
Polarizability Calculation                      ... off
GBWName                                         ... orca.gbw
Electron density                                ... orca.scfp
The origin for moment calculation is the CENTER OF MASS  = ( 0.000000,  0.000000  0.137077)

-------------
DIPOLE MOMENT
-------------
                                X             Y             Z
Electronic contribution:      0.00008       0.00025    -128.95117
Nuclear contribution   :      0.00000       0.00000    -156.73317
                        -----------------------------------------
Total Dipole Moment    :      0.00008       0.00025    -285.68434
                        -----------------------------------------
Magnitude (a.u.)       :    285.68434
Magnitude (Debye)      :    726.15189



--------------------
Rotational spectrum 
--------------------
 
Rotational constants in cm-1:     0.000079     0.000078     0.000076 
Rotational constants in MHz :     2.380553     2.327433     2.272892 

 Dipole components along the rotational axes: 
x,y,z [a.u.] :     0.000079  -285.684344     0.000254 
x,y,z [Debye]:     0.000201  -726.151894     0.000647 

 

Timings for individual modules:

Sum of individual times         ...     8747.847 sec (= 145.797 min)
GTO integral calculation        ...     3403.265 sec (=  56.721 min)  38.9 %
SCF iterations                  ...     5344.582 sec (=  89.076 min)  61.1 %
                             ****ORCA TERMINATED NORMALLY****
TOTAL RUN TIME: 0 days 2 hours 26 minutes 1 seconds 444 msec
