 vasp.6.2.0 18Jan21 (build Mar 03 2021 13:27:41) complex                        
  
 executed on             LinuxIFC date 2021.07.16  05:02:40
 running on  120 total cores
 distrk:  each k-point on  120 cores,    1 groups
 distr:  one band on NCORE=  20 cores,    6 groups


--------------------------------------------------------------------------------------------------------


 INCAR:
   SYSTEM = TiO2-rutile
   ISMEAR = 0
   SIGMA = 0.05
   EDIFF = 1E-5
   ALGO = Fast
   ISTART = 1
   ISYM = 0
   IBRION = -1
   NSW = 0
   EDIFFG = -0.01
   ISIF = 0
   ENCUT = 500
   PREC = Accurate
   LASPH = .TRUE.
   LREAL = Auto
   ISPIN = 1
   NELM = 500
   NELMIN = 4
   NCORE = 20
   LWAVE = .FALSE.
   LCHARG = .FALSE.
   LORBIT = 11

 POTCAR:    PAW Ti_sv 26Sep2005                   
 POTCAR:    PAW O 22Mar2012                       
 POTCAR:    PAW Ti_sv 26Sep2005                   
   SHA256 =  078bba2ba76fa12a112e91ee4366291a6d5e3996f0e1133d3572cac314e14472 Ti_sv/POTCAR          
   COPYR  = (c) Copyright 26Sep2005 Georg Kresse                                                    
   COPYR  = This file is part of the software VASP. Any use, copying, and all other rights are regul
   COPYR  = If you do not have a valid VASP license, you may not use, copy or distribute this file. 
   VRHFIN =Ti: 3s3p4s3d                                                                             
   LEXCH  = CA                                                                                      
   EATOM  =  1588.8698 eV,  116.7786 Ry                                                             
                                                                                                    
   TITEL  = PAW Ti_sv 26Sep2005                                                                     
   LULTRA =        F    use ultrasoft PP ?                                                          
   IUNSCR =        1    unscreen: 0-lin 1-nonlin 2-no                                               
   RPACOR =    2.000    partial core radius                                                         
   POMASS =   47.880; ZVAL   =   12.000    mass and valenz                                          
   RCORE  =    2.300    outmost cutoff radius                                                       
   RWIGS  =    2.300; RWIGS  =    1.217    wigner-seitz radius (au A)                               
   ENMAX  =  274.719; ENMIN  =  206.039 eV                                                          
   ICORE  =        3    local potential                                                             
   LCOR   =        T    correct aug charges                                                         
   LPAW   =        T    paw PP                                                                      
   EAUG   =  482.848                                                                                
   RMAX   =    2.348    core radius for proj-oper                                                   
   RAUG   =    1.300    factor for augmentation sphere                                              
   RDEP   =    2.381    radius for radial grids                                                     
   RDEPT  =    1.930    core radius for aug-charge                                                  
                                                                                                    
   Atomic configuration                                                                             
    8 entries                                                                                       
     n  l   j            E        occ.                                                              
     1  0  0.50     -4841.5915   2.0000                                                             
     2  0  0.50      -530.7755   2.0000                                                             
     2  1  1.50      -439.8260   6.0000                                                             
     3  0  0.50       -58.8300   2.0000                                                             
     4  0  0.50        -3.8733   1.0000                                                             
     3  1  1.50       -35.5746   6.0000                                                             
     3  2  2.50        -2.0952   3.0000                                                             
     4  3  2.50        -1.3606   0.0000                                                             
   Description                                                                                      
     l       E           TYP  RCUT    TYP  RCUT                                                     
     0    -58.8300472     23  1.800                                                                 
     0     -3.8733026     23  2.300                                                                 
     1    -35.5746147     23  2.300                                                                 
     1     -1.3605826     23  2.300                                                                 
     2     -2.0951860     23  2.300                                                                 
     2     -0.1606077     23  2.300                                                                 
     3     -1.3605826     23  2.300                                                                 
  local pseudopotential read in
  partial core-charges read in
  partial kinetic energy density read in
  atomic valenz-charges read in
  non local Contribution for L=           0  read in
    real space projection operators read in
  non local Contribution for L=           0  read in
    real space projection operators read in
  non local Contribution for L=           1  read in
    real space projection operators read in
  non local Contribution for L=           1  read in
    real space projection operators read in
  non local Contribution for L=           2  read in
    real space projection operators read in
  non local Contribution for L=           2  read in
    real space projection operators read in
    PAW grid and wavefunctions read in
 
   number of l-projection  operators is LMAX  =           6
   number of lm-projection operators is LMMAX =          18
 
 POTCAR:    PAW O 22Mar2012                       
   SHA256 =  fb56c0ff35fa0205295a7064175e8d4dc8b8fd86664824e51d4c6af4372219f2 O/POTCAR              
   COPYR  = (c) Copyright 22Mar2012 Georg Kresse                                                    
   COPYR  = This file is part of the software VASP. Any use, copying, and all other rights are regul
   COPYR  = If you do not have a valid VASP license, you may not use, copy or distribute this file. 
   VRHFIN =O: s2p4                                                                                  
   LEXCH  = CA                                                                                      
   EATOM  =   431.4380 eV,   31.7098 Ry                                                             
                                                                                                    
   TITEL  = PAW O 22Mar2012                                                                         
   LULTRA =        F    use ultrasoft PP ?                                                          
   IUNSCR =        1    unscreen: 0-lin 1-nonlin 2-no                                               
   RPACOR =    1.200    partial core radius                                                         
   POMASS =   16.000; ZVAL   =    6.000    mass and valenz                                          
   RCORE  =    1.520    outmost cutoff radius                                                       
   RWIGS  =    1.550; RWIGS  =    0.820    wigner-seitz radius (au A)                               
   ENMAX  =  400.000; ENMIN  =  300.000 eV                                                          
   ICORE  =        2    local potential                                                             
   LCOR   =        T    correct aug charges                                                         
   LPAW   =        T    paw PP                                                                      
   EAUG   =  605.392                                                                                
   DEXC   =    0.000                                                                                
   RMAX   =    1.553    core radius for proj-oper                                                   
   RAUG   =    1.300    factor for augmentation sphere                                              
   RDEP   =    1.550    radius for radial grids                                                     
   RDEPT  =    1.329    core radius for aug-charge                                                  
                                                                                                    
   Atomic configuration                                                                             
    4 entries                                                                                       
     n  l   j            E        occ.                                                              
     1  0  0.50      -510.4605   2.0000                                                             
     2  0  0.50       -23.7367   2.0000                                                             
     2  1  0.50        -9.1995   4.0000                                                             
     3  2  1.50        -9.5241   0.0000                                                             
   Description                                                                                      
     l       E           TYP  RCUT    TYP  RCUT                                                     
     0    -23.7366993     23  1.200                                                                 
     0     -9.5240782     23  1.200                                                                 
     1     -9.1994509     23  1.520                                                                 
     1      8.1634956     23  1.520                                                                 
     2     -9.5240782      7  1.500                                                                 
  local pseudopotential read in
  partial core-charges read in
  partial kinetic energy density read in
  kinetic energy density of atom read in
  atomic valenz-charges read in
  non local Contribution for L=           0  read in
    real space projection operators read in
  non local Contribution for L=           0  read in
    real space projection operators read in
  non local Contribution for L=           1  read in
    real space projection operators read in
  non local Contribution for L=           1  read in
    real space projection operators read in
    PAW grid and wavefunctions read in
 
   number of l-projection  operators is LMAX  =           4
   number of lm-projection operators is LMMAX =           8
 
 Optimization of the real space projectors (new method)

 maximal supplied QI-value         = 16.25
 optimisation between [QCUT,QGAM] = [ 11.38, 22.75] = [ 36.24,144.96] Ry 
 Optimized for a Real-space Cutoff    1.27 Angstroem

   l    n(q)    QCUT    max X(q) W(low)/X(q) W(high)/X(q)  e(spline) 
   0      9    11.376    12.197    0.54E-04    0.21E-04    0.24E-07
   0      9    11.376    11.139    0.92E-04    0.47E-05    0.33E-07
   1      8    11.376     4.011    0.10E-03    0.98E-04    0.29E-07
   1      8    11.376     6.084    0.81E-04    0.18E-03    0.11E-06
   2      8    11.376    46.184    0.13E-03    0.88E-03    0.24E-06
   2      8    11.376    41.673    0.13E-03    0.85E-03    0.23E-06
 Optimization of the real space projectors (new method)

 maximal supplied QI-value         = 24.76
 optimisation between [QCUT,QGAM] = [ 11.39, 22.77] = [ 36.31,145.25] Ry 
 Optimized for a Real-space Cutoff    1.10 Angstroem

   l    n(q)    QCUT    max X(q) W(low)/X(q) W(high)/X(q)  e(spline) 
   0      7    11.387    20.659    0.22E-03    0.50E-03    0.19E-06
   0      7    11.387    15.633    0.22E-03    0.53E-03    0.20E-06
   1      7    11.387     5.864    0.22E-03    0.73E-03    0.24E-06
   1      7    11.387     5.285    0.18E-03    0.60E-03    0.21E-06
  PAW Ti_sv 26Sep2005                   :
 energy of atom  1       EATOM=-1588.8698
 kinetic energy error for atom=    0.0046 (will be added to EATOM!!)
  PAW O 22Mar2012                       :
 energy of atom  2       EATOM= -431.4380
 kinetic energy error for atom=    0.0220 (will be added to EATOM!!)
 
 
 POSCAR: Ti  O
  positions in direct lattice
  velocities in cartesian coordinates
 exchange correlation table for  LEXCH =        2
   RHO(1)=    0.500       N(1)  =     2000
   RHO(2)=  100.500       N(2)  =     4000
 


--------------------------------------------------------------------------------------------------------


 ion  position               nearest neighbor table
   1  0.250  0.125  0.110-  68 1.93  67 1.93  83 1.93  84 1.94  65 1.95  66 1.96
   2  1.000  0.000  0.110- 129 1.93 177 1.93  65 1.93 112 1.93 143 1.95  71 1.96
   3  0.500  0.120  0.362-  72 1.88 134 1.91  88 1.95 133 1.95  69 1.95 150 1.97  27 2.80  11 2.81

   4  0.251  0.000  0.360-  69 1.93 116 1.93  70 1.94 117 1.94  68 1.95  75 1.96  12 2.92  28 2.92

   5  0.250  0.125  0.610-  76 1.93  75 1.93  91 1.93  92 1.94  73 1.95  74 1.97
   6  1.000  1.000  0.610- 185 1.94 120 1.94 137 1.94  73 1.94 135 1.95  79 1.95
   7  0.500  0.123  0.856- 142 1.91  80 1.93 141 1.95  77 1.95  96 1.95 158 1.96  31 2.89  15 2.90

   8  0.250  0.000  0.860-  78 1.93 125 1.93  77 1.94 124 1.94  67 1.95  76 1.96
   9  0.250  0.375  0.110-  99 1.93  83 1.93 100 1.93  84 1.94  81 1.95  82 1.97  17 2.92
  10  0.000  0.250  0.110-  81 1.93 145 1.93  65 1.93 129 1.93 159 1.95  87 1.96
  11  0.500  0.359  0.344- 150 1.76 166 1.90  88 1.90  85 1.94 149 1.94   3 2.81
  12  0.249  0.250  0.360-  70 1.92  86 1.92  69 1.94  84 1.95  91 1.95  85 1.98   4 2.92
  13  0.249  0.375  0.609-  91 1.93 106 1.93  92 1.93 107 1.94  89 1.95  90 1.98  21 2.92
  14  1.000  0.250  0.610- 137 1.93  73 1.93 153 1.93  89 1.93 151 1.95  95 1.96
  15  0.500  0.371  0.864-  96 1.87 158 1.93  93 1.94 157 1.94 111 1.95 174 1.96   7 2.90
  16  0.250  0.250  0.860-  78 1.93  94 1.93  77 1.94  93 1.94  83 1.96  92 1.96
  17  0.250  0.625  0.110-  99 1.93 114 1.93 100 1.93 115 1.94  97 1.95  98 1.97   9 2.92
  18  1.000  0.500  0.110- 161 1.93 145 1.93  97 1.93  81 1.93 175 1.95 103 1.96
  19  0.500  0.641  0.344- 182 1.76 166 1.90 119 1.90 165 1.94 101 1.94  27 2.81
  20  0.251  0.500  0.360-  86 1.94 102 1.94  85 1.94 101 1.94 100 1.95 106 1.95
  21  0.249  0.625  0.609- 122 1.93 106 1.93 123 1.93 107 1.94 104 1.95 105 1.98  13 2.92
  22  0.000  0.500  0.610-  89 1.93 153 1.93 104 1.93 169 1.93 110 1.96 167 1.96
  23  0.500  0.629  0.864- 127 1.87 190 1.93 108 1.94 173 1.94 111 1.95 174 1.96  31 2.90
  24  0.250  0.500  0.860- 109 1.93  94 1.93 108 1.94  93 1.94 107 1.95  99 1.97
  25  0.250  0.875  0.110-  68 1.93  67 1.93 114 1.93 115 1.94 112 1.95 113 1.96
  26  1.000  0.750  0.110-  97 1.93 161 1.93 177 1.93 112 1.93 191 1.95 118 1.96
  27  0.500  0.880  0.362-  72 1.88 134 1.91 119 1.95 181 1.95 116 1.95 182 1.97   3 2.80  19 2.81

  28  0.249  0.750  0.360- 117 1.92 102 1.92 116 1.94 115 1.95 122 1.95 101 1.98   4 2.92
  29  0.250  0.875  0.610-  76 1.93  75 1.93 122 1.93 123 1.94 120 1.95 121 1.97
  30  0.000  0.750  0.610- 120 1.93 185 1.93 104 1.93 169 1.93 183 1.95 126 1.96
  31  0.500  0.877  0.856- 142 1.91  80 1.93 189 1.95 124 1.95 127 1.95 190 1.96   7 2.89  23 2.90

  32  0.250  0.750  0.860- 125 1.93 109 1.93 124 1.94 108 1.94 114 1.96 123 1.96
  33  0.750  0.125  0.110- 131 1.93 130 1.93 146 1.93 147 1.94 129 1.95 128 1.96
  34  0.500  1.000  0.108- 176 1.93 113 1.93 128 1.93  66 1.93  80 1.96 134 1.97  42 2.91  58 2.91

  35  1.000  0.125  0.360-  71 1.93  87 1.93 135 1.93 151 1.94 132 1.96  70 1.96
  36  0.749  1.000  0.360- 181 1.93 133 1.93 180 1.94 132 1.94 131 1.95 138 1.96  60 2.92  44 2.92

  37  0.750  0.125  0.610- 139 1.93 138 1.93 154 1.93 155 1.94 137 1.95 136 1.97
  38  0.500  0.000  0.611- 142 1.91  74 1.94 121 1.94 136 1.94 184 1.94  72 1.94
  39  1.000  0.125  0.860-  95 1.93  79 1.93 159 1.93 143 1.94  78 1.96 140 1.96
  40  0.750  1.000  0.860- 188 1.93 140 1.93 189 1.94 141 1.94 130 1.95 139 1.96
  41  0.750  0.375  0.110- 162 1.93 146 1.93 163 1.93 147 1.94 145 1.95 144 1.97  49 2.92
  42  0.500  0.249  0.104-  96 1.89 128 1.92  66 1.92 144 1.94  82 1.94 150 1.98  34 2.91
  43  1.000  0.375  0.360- 103 1.93  87 1.93 167 1.93 151 1.93  86 1.97 148 1.97  51 2.92
  44  0.751  0.250  0.360- 132 1.92 148 1.92 133 1.94 147 1.95 154 1.95 149 1.98  36 2.92
  45  0.751  0.375  0.609- 154 1.93 170 1.93 155 1.93 171 1.94 153 1.95 152 1.98  53 2.92
  46  0.500  0.251  0.607- 136 1.92  74 1.92 152 1.96  90 1.96  88 1.96 158 1.97
  47  1.000  0.375  0.860- 110 1.93  95 1.93 175 1.93 159 1.93 156 1.96  94 1.96
  48  0.750  0.250  0.860- 140 1.93 156 1.93 141 1.94 157 1.94 146 1.96 155 1.96
  49  0.750  0.625  0.110- 162 1.93 178 1.93 163 1.93 179 1.94 161 1.95 160 1.97  41 2.92
  50  0.500  0.500  0.110- 111 1.92  82 1.93 144 1.93  98 1.93 160 1.93 166 2.07
  51  0.000  0.625  0.360- 103 1.93 118 1.93 167 1.93 183 1.93 102 1.97 164 1.97  43 2.92
  52  0.749  0.500  0.360- 148 1.94 164 1.94 149 1.94 165 1.94 163 1.95 170 1.95
  53  0.751  0.625  0.609- 186 1.93 170 1.93 187 1.93 171 1.94 169 1.95 168 1.98  45 2.92
  54  0.500  0.500  0.629- 174 1.77 105 1.91 168 1.91  90 1.91 152 1.91
  55  1.000  0.625  0.860- 110 1.93 126 1.93 175 1.93 191 1.93 172 1.96 109 1.96
  56  0.750  0.500  0.860- 156 1.93 172 1.93 157 1.94 173 1.94 171 1.95 162 1.97
  57  0.750  0.875  0.110- 131 1.93 130 1.93 178 1.93 179 1.94 177 1.95 176 1.96
  58  0.500  0.751  0.104- 127 1.89 113 1.92 176 1.92  98 1.94 160 1.94 182 1.98  34 2.91
  59  0.000  0.875  0.360-  71 1.93 118 1.93 135 1.93 183 1.94 117 1.96 180 1.96
  60  0.751  0.750  0.360- 180 1.92 164 1.92 181 1.94 179 1.95 186 1.95 165 1.99  36 2.92
  61  0.750  0.875  0.610- 139 1.93 138 1.93 186 1.93 187 1.94 185 1.95 184 1.97
  62  0.500  0.749  0.607- 184 1.92 121 1.92 168 1.96 105 1.96 119 1.96 190 1.97
  63  1.000  0.875  0.860- 126 1.93  79 1.93 191 1.93 143 1.94 188 1.96 125 1.96
  64  0.750  0.750  0.860- 188 1.93 172 1.93 189 1.94 173 1.94 178 1.96 187 1.96
  65  0.098  0.125  0.110-  10 1.93   2 1.93   1 1.95
  66  0.402  0.125  0.108-  42 1.92  34 1.93   1 1.96
  67  0.250  1.000  0.012-  25 1.93   1 1.93   8 1.95
  68  0.251  1.000  0.208-   1 1.93  25 1.93   4 1.95
  69  0.349  0.125  0.361-   4 1.93  12 1.94   3 1.95
  70  0.152  0.126  0.360-  12 1.92   4 1.94  35 1.96
  71  0.000  1.000  0.262-  35 1.93  59 1.93   2 1.96
  72  0.500  1.000  0.460-   3 1.88  27 1.88  38 1.94
  73  0.098  0.125  0.610-  14 1.93   6 1.94   5 1.95
  74  0.402  0.126  0.608-  46 1.92  38 1.94   5 1.97
  75  0.250  0.000  0.512-   5 1.93  29 1.93   4 1.96
  76  0.251  0.000  0.708-   5 1.93  29 1.93   8 1.96
  77  0.349  0.125  0.859-  16 1.94   8 1.94   7 1.95
  78  0.152  0.125  0.860-  16 1.93   8 1.93  39 1.96
  79  1.000  0.000  0.762-  63 1.93  39 1.93   6 1.95
  80  0.500  1.000  0.956-   7 1.93  31 1.93  34 1.96
  81  0.098  0.375  0.110-  10 1.93  18 1.93   9 1.95
  82  0.402  0.375  0.112-  50 1.93  42 1.94   9 1.97
  83  0.250  0.250  0.012-   9 1.93   1 1.93  16 1.96
  84  0.251  0.250  0.209-   1 1.94   9 1.94  12 1.95
  85  0.352  0.377  0.363-  11 1.94  20 1.94  12 1.98
  86  0.153  0.375  0.360-  12 1.92  20 1.94  43 1.97
  87  1.000  0.250  0.262-  35 1.93  43 1.93  10 1.96
  88  0.500  0.252  0.455-  11 1.90   3 1.95  46 1.96
  89  0.098  0.375  0.610-  22 1.93  14 1.93  13 1.95
  90  0.403  0.380  0.603-  54 1.91  46 1.96  13 1.98
  91  0.250  0.250  0.512-  13 1.93   5 1.93  12 1.95
  92  0.252  0.251  0.708-  13 1.93   5 1.94  16 1.96
  93  0.349  0.375  0.861-  24 1.94  16 1.94  15 1.94
  94  0.152  0.375  0.860-  16 1.93  24 1.93  47 1.96
  95  1.000  0.250  0.762-  39 1.93  47 1.93  14 1.96
  96  0.500  0.248  0.957-  15 1.87  42 1.89   7 1.95
  97  0.098  0.625  0.110-  26 1.93  18 1.93  17 1.95
  98  0.402  0.625  0.112-  50 1.93  58 1.94  17 1.97
  99  0.251  0.500  0.012-  17 1.93   9 1.93  24 1.97
 100  0.251  0.500  0.209-   9 1.93  17 1.93  20 1.95
 101  0.352  0.623  0.363-  19 1.94  20 1.94  28 1.98
 102  0.153  0.625  0.360-  28 1.92  20 1.94  51 1.97
 103  1.000  0.500  0.262-  51 1.93  43 1.93  18 1.96
 104  0.098  0.625  0.610-  22 1.93  30 1.93  21 1.95
 105  0.403  0.620  0.603-  54 1.91  62 1.96  21 1.98
 106  0.248  0.500  0.512-  21 1.93  13 1.93  20 1.95
 107  0.252  0.500  0.708-  13 1.94  21 1.94  24 1.95
 108  0.349  0.625  0.861-  24 1.94  32 1.94  23 1.94
 109  0.152  0.625  0.860-  32 1.93  24 1.93  55 1.96
 110  1.000  0.500  0.762-  55 1.93  47 1.93  22 1.96
 111  0.500  0.500  0.961-  50 1.92  23 1.95  15 1.95
 112  0.098  0.875  0.110-  26 1.93   2 1.93  25 1.95
 113  0.402  0.875  0.108-  58 1.92  34 1.93  25 1.96
 114  0.250  0.750  0.012-  17 1.93  25 1.93  32 1.96
 115  0.251  0.750  0.209-  25 1.94  17 1.94  28 1.95
 116  0.349  0.875  0.361-   4 1.93  28 1.94  27 1.95
 117  0.152  0.874  0.360-  28 1.92   4 1.94  59 1.96
 118  0.000  0.750  0.262-  59 1.93  51 1.93  26 1.96
 119  0.500  0.748  0.455-  19 1.90  27 1.95  62 1.96
 120  0.098  0.875  0.610-  30 1.93   6 1.94  29 1.95
 121  0.402  0.874  0.608-  62 1.92  38 1.94  29 1.97
 122  0.250  0.750  0.512-  21 1.93  29 1.93  28 1.95
 123  0.252  0.749  0.708-  21 1.93  29 1.94  32 1.96
 124  0.349  0.875  0.859-  32 1.94   8 1.94  31 1.95
 125  0.152  0.875  0.860-  32 1.93   8 1.93  63 1.96
 126  1.000  0.750  0.762-  63 1.93  55 1.93  30 1.96
 127  0.500  0.752  0.957-  23 1.87  58 1.89  31 1.95
 128  0.598  0.125  0.108-  42 1.92  34 1.93  33 1.96
 129  0.902  0.125  0.110-  10 1.93   2 1.93  33 1.95
 130  0.750  1.000  0.012-  57 1.93  33 1.93  40 1.95
 131  0.749  0.000  0.208-  33 1.93  57 1.93  36 1.95
 132  0.848  0.126  0.360-  44 1.92  36 1.94  35 1.96
 133  0.651  0.125  0.361-  36 1.93  44 1.94   3 1.95
 134  0.500  0.000  0.261-   3 1.91  27 1.91  34 1.97
 135  0.000  1.000  0.458-  35 1.93  59 1.93   6 1.95
 136  0.598  0.126  0.608-  46 1.92  38 1.94  37 1.97
 137  0.902  0.125  0.610-  14 1.93   6 1.94  37 1.95
 138  0.750  0.000  0.512-  61 1.93  37 1.93  36 1.96
 139  0.749  0.000  0.708-  37 1.93  61 1.93  40 1.96
 140  0.848  0.125  0.860-  48 1.93  40 1.93  39 1.96
 141  0.651  0.125  0.859-  48 1.94  40 1.94   7 1.95
 142  0.500  0.000  0.759-  31 1.91   7 1.91  38 1.91
 143  1.000  1.000  0.958-  63 1.94  39 1.94   2 1.95
 144  0.598  0.375  0.112-  50 1.93  42 1.94  41 1.97
 145  0.902  0.375  0.110-  10 1.93  18 1.93  41 1.95
 146  0.750  0.250  0.012-  41 1.93  33 1.93  48 1.96
 147  0.749  0.250  0.209-  33 1.94  41 1.94  44 1.95
 148  0.847  0.375  0.360-  44 1.92  52 1.94  43 1.97
 149  0.648  0.377  0.363-  11 1.94  52 1.94  44 1.98
 150  0.500  0.242  0.257-  11 1.76   3 1.97  42 1.98
 151  1.000  0.250  0.458-  43 1.93  35 1.94  14 1.95
 152  0.597  0.380  0.603-  54 1.91  46 1.96  45 1.98
 153  0.902  0.375  0.610-  22 1.93  14 1.93  45 1.95
 154  0.750  0.250  0.512-  45 1.93  37 1.93  44 1.95
 155  0.748  0.251  0.708-  45 1.93  37 1.94  48 1.96
 156  0.848  0.375  0.860-  48 1.93  56 1.93  47 1.96
 157  0.651  0.375  0.861-  56 1.94  48 1.94  15 1.94
 158  0.500  0.253  0.760-  15 1.93   7 1.96  46 1.97
 159  1.000  0.250  0.958-  39 1.93  47 1.93  10 1.95
 160  0.598  0.625  0.112-  50 1.93  58 1.94  49 1.97
 161  0.902  0.625  0.110-  26 1.93  18 1.93  49 1.95
 162  0.749  0.500  0.012-  49 1.93  41 1.93  56 1.97
 163  0.749  0.500  0.209-  49 1.93  41 1.93  52 1.95
 164  0.847  0.625  0.360-  60 1.92  52 1.94  51 1.97
 165  0.648  0.623  0.363-  19 1.94  52 1.94  60 1.99
 166  0.500  0.500  0.271-  11 1.90  19 1.90  50 2.07
 167  1.000  0.500  0.458-  51 1.93  43 1.93  22 1.96
 168  0.597  0.620  0.603-  54 1.91  62 1.96  53 1.98
 169  0.902  0.625  0.610-  30 1.93  22 1.93  53 1.95
 170  0.752  0.500  0.512-  45 1.93  53 1.93  52 1.95
 171  0.748  0.500  0.708-  53 1.94  45 1.94  56 1.95
 172  0.848  0.625  0.860-  64 1.93  56 1.93  55 1.96
 173  0.651  0.625  0.861-  56 1.94  64 1.94  23 1.94
 174  0.500  0.500  0.767-  54 1.77  15 1.96  23 1.96
 175  1.000  0.500  0.958-  47 1.93  55 1.93  18 1.95
 176  0.598  0.875  0.108-  58 1.92  34 1.93  57 1.96
 177  0.902  0.875  0.110-  26 1.93   2 1.93  57 1.95
 178  0.750  0.750  0.012-  49 1.93  57 1.93  64 1.96
 179  0.749  0.750  0.209-  57 1.94  49 1.94  60 1.95
 180  0.848  0.874  0.360-  60 1.92  36 1.94  59 1.96
 181  0.651  0.875  0.361-  36 1.93  60 1.94  27 1.95
 182  0.500  0.758  0.257-  19 1.76  27 1.97  58 1.98
 183  0.000  0.750  0.458-  51 1.93  59 1.94  30 1.95
 184  0.598  0.874  0.608-  62 1.92  38 1.94  61 1.97
 185  0.902  0.875  0.610-  30 1.93   6 1.94  61 1.95
 186  0.750  0.750  0.512-  53 1.93  61 1.93  60 1.95
 187  0.748  0.749  0.708-  53 1.93  61 1.94  64 1.96
 188  0.848  0.875  0.860-  64 1.93  40 1.93  63 1.96
 189  0.651  0.875  0.859-  64 1.94  40 1.94  31 1.95
 190  0.500  0.747  0.760-  23 1.93  31 1.96  62 1.97
 191  1.000  0.750  0.958-  63 1.93  55 1.93  26 1.95
 

IMPORTANT INFORMATION: All symmetrisations will be switched off!
NOSYMM: (Re-)initialisation of all symmetry stuff for point group C_1.


----------------------------------------------------------------------------------------

                                     Primitive cell                                     

  volume of cell :    1939.6039

  direct lattice vectors                    reciprocal lattice vectors
    12.881025995  0.000000000  0.000000000     0.077633567  0.000000000  0.000000000
     0.000000000 11.689936215  0.000000000     0.000000000  0.085543666  0.000000000
     0.000000000  0.000000000 12.881025995     0.000000000  0.000000000  0.077633567

  length of vectors
    12.881025995 11.689936215 12.881025995     0.077633567  0.085543666  0.077633567

  position of ions in fractional coordinates (direct lattice)
     0.249514586  0.125012550  0.110188129
     0.999999300  0.000000729  0.109785431
     0.500002640  0.119643442  0.362308615
     0.250569142  0.000002837  0.360110234
     0.249680591  0.125040973  0.610218618
     0.999998086  0.999995921  0.610191624
     0.500007408  0.123474636  0.856299454
     0.250117321  0.000009865  0.860299836
     0.249667992  0.375149421  0.110195868
     0.000004903  0.250090598  0.110094413
     0.499996978  0.358919446  0.343763142
     0.249347791  0.249675514  0.360205833
     0.249397119  0.375135557  0.609191750
     0.999999189  0.250004237  0.610070651
     0.499995997  0.371396783  0.864333745
     0.249919605  0.250049481  0.860055522
     0.249665080  0.624855110  0.110191894
     0.999997585  0.500000788  0.110025766
     0.500005241  0.641082887  0.343763042
     0.251304466  0.499997800  0.360150549
     0.249386162  0.624843060  0.609165940
     0.000002776  0.499997158  0.610231327
     0.499991121  0.628605969  0.864334190
     0.250337025  0.500006683  0.859759154
     0.249509109  0.874986988  0.110183371
     0.999998897  0.749908965  0.110084341
     0.500005479  0.880355146  0.362307239
     0.249352862  0.750322748  0.360201733
     0.249686703  0.874954172  0.610224427
     0.000002527  0.749993964  0.610074171
     0.500000188  0.876528943  0.856293497
     0.249914214  0.749957701  0.860045453
     0.750488584  0.125012703  0.110186560
     0.500000371  0.999994471  0.107961076
     0.999998036  0.124965274  0.360097799
     0.749433542  0.999998286  0.360110217
     0.750319251  0.125043830  0.610221789
     0.499992828  0.000003099  0.610879530
     0.999999889  0.125127739  0.859933008
     0.749882643  0.999999343  0.860305559
     0.750333683  0.375143393  0.110198008
     0.500002631  0.248562624  0.103590252
     0.999999300  0.375118168  0.360038292
     0.750651399  0.249675371  0.360206685
     0.750615392  0.375154591  0.609172405
     0.500011921  0.250840985  0.606689463
     0.999997894  0.375059065  0.860093037
     0.750086743  0.250050600  0.860049243
     0.750330214  0.624858735  0.110198175
     0.499997362  0.499996364  0.110326390
     0.000003238  0.624871763  0.360044037
     0.748686499  0.499998116  0.360150375
     0.750615408  0.624848164  0.609174851
     0.499995731  0.500001944  0.629474239
     0.999995920  0.624938196  0.860087588
     0.749643825  0.500000628  0.859780334
     0.750491458  0.874988660  0.110187024
     0.499998768  0.751422800  0.103588148
     0.000017619  0.875018666  0.360094182
     0.750695012  0.750321511  0.360209968
     0.750316084  0.874956585  0.610221257
     0.500013232  0.749158621  0.606687768
     0.999997924  0.874877513  0.859928939
     0.750084052  0.749950538  0.860049101
     0.098309787  0.125062942  0.110339545
     0.401941821  0.124928355  0.108393176
     0.250053910  0.999998258  0.011801802
     0.250560850  0.999999430  0.208366884
     0.348687336  0.124800242  0.360569483
     0.152240207  0.125550858  0.360346644
     0.000000570  0.999998658  0.262241204
     0.499998192  0.999999405  0.459965005
     0.098389632  0.125151154  0.610439983
     0.402460827  0.126246055  0.608397620
     0.250309058  0.000003346  0.512080931
     0.251273458  0.000001954  0.708071523
     0.348805552  0.125232656  0.859288158
     0.152181050  0.125235450  0.859603053
     0.999999756  0.000001086  0.761963133
     0.500000142  0.999999699  0.956037113
     0.098317996  0.374929161  0.110418060
     0.402483579  0.374673735  0.112378369
     0.250494949  0.250234474  0.012014741
     0.251326687  0.250004385  0.208771909
     0.351721250  0.376528912  0.362565301
     0.152844691  0.374917945  0.359663248
     0.999999288  0.249975838  0.262147371
     0.500000862  0.251628868  0.454549899
     0.098300908  0.375005837  0.610446920
     0.403229943  0.379685540  0.603012401
     0.250082949  0.250072751  0.511828016
     0.252162973  0.251085092  0.707866391
     0.349118718  0.375206211  0.861151139
     0.152184401  0.375105127  0.859787547
     0.999998714  0.250083103  0.762029454
     0.499998722  0.248070433  0.957175523
     0.098317001  0.625071748  0.110415846
     0.402481956  0.625328641  0.112378641
     0.250839354  0.500000816  0.012328253
     0.250650197  0.500001023  0.208734515
     0.351722496  0.623467688  0.362564216
     0.152846469  0.625080829  0.359663806
     0.999997527  0.499998821  0.262117040
     0.098299787  0.624995581  0.610443915
     0.403230946  0.620313541  0.603011478
     0.247667564  0.499993203  0.511548702
     0.252221555  0.500001694  0.708125975
     0.349115136  0.624802183  0.861147694
     0.152180863  0.624896625  0.859786557
     0.999999390  0.500000704  0.762012509
     0.500000743  0.500003213  0.961148486
     0.098309008  0.874936420  0.110338026
     0.401940445  0.875069066  0.108391671
     0.250490590  0.749767855  0.012012574
     0.251326626  0.749996643  0.208768230
     0.348687060  0.875202663  0.360569378
     0.152243609  0.874448563  0.360344482
     0.000001642  0.750018093  0.262146711
     0.500000842  0.748371861  0.454548911
     0.098389876  0.874850133  0.610438148
     0.402461553  0.873755139  0.608397096
     0.250084567  0.749929684  0.511823702
     0.252159175  0.748912246  0.707861093
     0.348803080  0.874770563  0.859288114
     0.152177662  0.874772889  0.859601329
     0.999999296  0.749916941  0.762027841
     0.499998950  0.751931538  0.957175031
     0.598059606  0.124926227  0.108392766
     0.901692464  0.125064192  0.110340036
     0.749945360  0.999998891  0.011802760
     0.749437941  0.000002090  0.208364124
     0.847759167  0.125551742  0.360348368
     0.651311909  0.124795779  0.360567991
     0.499991509  0.000000919  0.260906129
     0.000002389  0.999995735  0.458439283
     0.597539927  0.126240519  0.608395106
     0.901609918  0.125151273  0.610435045
     0.749689574  0.000000172  0.512080637
     0.748725492  0.000000562  0.708070769
     0.847818682  0.125233170  0.859603053
     0.651195128  0.125231576  0.859292007
     0.499998958  0.000002306  0.759361629
     0.999998160  0.999999576  0.958318106
     0.597517645  0.374676076  0.112378991
     0.901681493  0.374927034  0.110417911
     0.749505138  0.250237273  0.012013860
     0.748672124  0.250005824  0.208769529
     0.847152135  0.374919044  0.359664156
     0.648275547  0.376532598  0.362562263
     0.499998091  0.242122452  0.257047108
     0.999998835  0.250257942  0.458388260
     0.596768447  0.379691112  0.603007046
     0.901700491  0.375006247  0.610444271
     0.749911513  0.250071409  0.511824509
     0.747834112  0.251088158  0.707861847
     0.847812661  0.375109277  0.859788063
     0.650876437  0.375202257  0.861152641
     0.500006210  0.252919490  0.759959068
     0.999999372  0.249956785  0.958351035
     0.597516349  0.625327074  0.112377428
     0.901679142  0.625071670  0.110415865
     0.749155163  0.500001196  0.012330320
     0.749348976  0.500001067  0.208735226
     0.847157017  0.625078347  0.359664904
     0.648279754  0.623468705  0.362562097
     0.499996402  0.499999280  0.271039372
     0.999999277  0.499998316  0.458290752
     0.596767877  0.620309472  0.603009061
     0.901699163  0.624996685  0.610442042
     0.752331548  0.500000712  0.511545401
     0.747773363  0.500000378  0.708122939
     0.847812606  0.624892230  0.859789391
     0.650875931  0.624798857  0.861152725
     0.499999166  0.500000207  0.766889052
     0.999999232  0.500000408  0.958448791
     0.598059351  0.875068985  0.108394559
     0.901690010  0.874937400  0.110340903
     0.749504869  0.749766704  0.012014842
     0.748672053  0.749995252  0.208769511
     0.847764196  0.874450205  0.360343831
     0.651317030  0.875200888  0.360567518
     0.499998933  0.757876700  0.257045320
     0.000002034  0.749741101  0.458387804
     0.597540688  0.873760567  0.608396036
     0.901610029  0.874849115  0.610436835
     0.749912564  0.749929823  0.511824040
     0.747834683  0.748913513  0.707862418
     0.847818469  0.874767255  0.859603110
     0.651195052  0.874770517  0.859290349
     0.500005349  0.747083095  0.759958690
     0.999999015  0.750044592  0.958348460

  ion indices of the primitive-cell ions
   primitive index   ion index
                 1           1
                 2           2
                 3           3
                 4           4
                 5           5
                 6           6
                 7           7
                 8           8
                 9           9
                10          10
                11          11
                12          12
                13          13
                14          14
                15          15
                16          16
                17          17
                18          18
                19          19
                20          20
                21          21
                22          22
                23          23
                24          24
                25          25
                26          26
                27          27
                28          28
                29          29
                30          30
                31          31
                32          32
                33          33
                34          34
                35          35
                36          36
                37          37
                38          38
                39          39
                40          40
                41          41
                42          42
                43          43
                44          44
                45          45
                46          46
                47          47
                48          48
                49          49
                50          50
                51          51
                52          52
                53          53
                54          54
                55          55
                56          56
                57          57
                58          58
                59          59
                60          60
                61          61
                62          62
                63          63
                64          64
                65          65
                66          66
                67          67
                68          68
                69          69
                70          70
                71          71
                72          72
                73          73
                74          74
                75          75
                76          76
                77          77
                78          78
                79          79
                80          80
                81          81
                82          82
                83          83
                84          84
                85          85
                86          86
                87          87
                88          88
                89          89
                90          90
                91          91
                92          92
                93          93
                94          94
                95          95
                96          96
                97          97
                98          98
                99          99
               100         100
               101         101
               102         102
               103         103
               104         104
               105         105
               106         106
               107         107
               108         108
               109         109
               110         110
               111         111
               112         112
               113         113
               114         114
               115         115
               116         116
               117         117
               118         118
               119         119
               120         120
               121         121
               122         122
               123         123
               124         124
               125         125
               126         126
               127         127
               128         128
               129         129
               130         130
               131         131
               132         132
               133         133
               134         134
               135         135
               136         136
               137         137
               138         138
               139         139
               140         140
               141         141
               142         142
               143         143
               144         144
               145         145
               146         146
               147         147
               148         148
               149         149
               150         150
               151         151
               152         152
               153         153
               154         154
               155         155
               156         156
               157         157
               158         158
               159         159
               160         160
               161         161
               162         162
               163         163
               164         164
               165         165
               166         166
               167         167
               168         168
               169         169
               170         170
               171         171
               172         172
               173         173
               174         174
               175         175
               176         176
               177         177
               178         178
               179         179
               180         180
               181         181
               182         182
               183         183
               184         184
               185         185
               186         186
               187         187
               188         188
               189         189
               190         190
               191         191

----------------------------------------------------------------------------------------

 
 
 KPOINTS: pymatgen v2020.8.13 with grid density = 

Automatic generation of k-mesh.
 Grid dimensions read from file:
 generate k-points for:    2    2    2

 Generating k-lattice:

  Cartesian coordinates                     Fractional coordinates (reciprocal lattice)
     0.038816784  0.000000000  0.000000000     0.500000000  0.000000000  0.000000000
     0.000000000  0.042771833  0.000000000     0.000000000  0.500000000  0.000000000
     0.000000000  0.000000000  0.038816784     0.000000000  0.000000000  0.500000000

  Length of vectors
     0.038816784  0.042771833  0.038816784

  Shift w.r.t. Gamma in fractional coordinates (k-lattice)
     0.000000000  0.000000000  0.000000000

 
 Subroutine IBZKPT returns following result:
 ===========================================
 
 Found      8 irreducible k-points:
 
 Following reciprocal coordinates:
            Coordinates               Weight
  0.000000  0.000000  0.000000      1.000000
  0.500000  0.000000  0.000000      1.000000
  0.000000  0.000000  0.500000      1.000000
  0.000000  0.500000  0.000000      1.000000
  0.500000  0.500000  0.000000      1.000000
  0.000000  0.500000  0.500000      1.000000
  0.500000  0.000000  0.500000      1.000000
  0.500000  0.500000  0.500000      1.000000
 
 Following cartesian coordinates:
            Coordinates               Weight
  0.000000  0.000000  0.000000      1.000000
  0.038817  0.000000  0.000000      1.000000
  0.000000  0.000000  0.038817      1.000000
  0.000000  0.042772  0.000000      1.000000
  0.038817  0.042772  0.000000      1.000000
  0.000000  0.042772  0.038817      1.000000
  0.038817  0.000000  0.038817      1.000000
  0.038817  0.042772  0.038817      1.000000
 


--------------------------------------------------------------------------------------------------------




 Dimension of arrays:
   k-points           NKPTS =      8   k-points in BZ     NKDIM =      8   number of bands    NBANDS=    918
   number of dos      NEDOS =    301   number of ions     NIONS =    191
   non local maximal  LDIM  =      6   non local SUM 2l+1 LMDIM =     18
   total plane-waves  NPLWV = 829440
   max r-space proj   IRMAX =   3735   max aug-charges    IRDMAX=  16800
   dimension x,y,z NGX =    96 NGY =   90 NGZ =   96
   dimension x,y,z NGXF=   192 NGYF=  180 NGZF=  192
   support grid    NGXF=   192 NGYF=  180 NGZF=  192
   ions per type =              64 127
   NGX,Y,Z   is equivalent  to a cutoff of  12.39, 12.80, 12.39 a.u.
   NGXF,Y,Z  is equivalent  to a cutoff of  24.78, 25.60, 24.78 a.u.

 SYSTEM =  TiO2-rutile                             
 POSCAR =  Ti  O                                   

 Startparameter for this run:
   NWRITE =      2    write-flag & timer
   PREC   = accura    normal or accurate (medium, high low for compatibility)
   ISTART =      0    job   : 0-new  1-cont  2-samecut
   ICHARG =      2    charge: 1-file 2-atom 10-const
   ISPIN  =      1    spin polarized calculation?
   LNONCOLLINEAR =      F non collinear calculations
   LSORBIT =      F    spin-orbit coupling
   INIWAV =      1    electr: 0-lowe 1-rand  2-diag
   LASPH  =      T    aspherical Exc in radial PAW
   METAGGA=      F    non-selfconsistent MetaGGA calc.

 Electronic Relaxation 1
   ENCUT  =  500.0 eV  36.75 Ry    6.06 a.u.  23.49 21.31 23.49*2*pi/ulx,y,z
   ENINI  =  500.0     initial cutoff
   ENAUG  =  605.4 eV  augmentation charge cutoff
   NELM   =    500;   NELMIN=  4; NELMDL=  0     # of ELM steps 
   EDIFF  = 0.1E-04   stopping-criterion for ELM
   LREAL  =      T    real-space projection
   NLSPLINE    = F    spline interpolate recip. space projectors
   LCOMPAT=      F    compatible to vasp.4.4
   GGA_COMPAT  = T    GGA compatible to vasp.4.4-vasp.4.6
   LMAXPAW     = -100 max onsite density
   LMAXMIX     =    2 max onsite mixed and CHGCAR
   VOSKOWN=      0    Vosko Wilk Nusair interpolation
   ROPT   =   -0.00025  -0.00025
 Ionic relaxation
   EDIFFG = -.1E-01   stopping-criterion for IOM
   NSW    =      0    number of steps for IOM
   NBLOCK =      1;   KBLOCK =      1    inner block; outer block 
   IBRION =     -1    ionic relax: 0-MD 1-quasi-New 2-CG
   NFREE  =      0    steps in history (QN), initial steepest desc. (CG)
   ISIF   =      0    stress and relaxation
   IWAVPR =     10    prediction:  0-non 1-charg 2-wave 3-comb
   ISYM   =      0    0-nonsym 1-usesym 2-fastsym
   LCORR  =      T    Harris-Foulkes like correction to forces

   POTIM  = 0.5000    time-step for ionic-motion
   TEIN   =    0.0    initial temperature
   TEBEG  =    0.0;   TEEND  =   0.0 temperature during run
   SMASS  =  -3.00    Nose mass-parameter (am)
   estimated Nose-frequenzy (Omega)   =  0.10E-29 period in steps = 0.13E+47 mass=  -0.379E-26a.u.
   SCALEE = 1.0000    scale energy and forces
   NPACO  =    256;   APACO  = 16.0  distance and # of slots for P.C.
   PSTRESS=    0.0 pullay stress

  Mass of Ions in am
   POMASS =  47.88 16.00
  Ionic Valenz
   ZVAL   =  12.00  6.00
  Atomic Wigner-Seitz radii
   RWIGS  =  -1.00 -1.00
  virtual crystal weights 
   VCA    =   1.00  1.00
   NELECT =    1530.0000    total number of electrons
   NUPDOWN=      -1.0000    fix difference up-down

 DOS related values:
   EMIN   =  10.00;   EMAX   =-10.00  energy-range for DOS
   EFERMI =   0.00
   ISMEAR =     0;   SIGMA  =   0.05  broadening in eV -4-tet -1-fermi 0-gaus

 Electronic relaxation 2 (details)
   IALGO  =     68    algorithm
   LDIAG  =      T    sub-space diagonalisation (order eigenvalues)
   LSUBROT=      F    optimize rotation matrix (better conditioning)
   TURBO    =      0    0=normal 1=particle mesh
   IRESTART =      0    0=no restart 2=restart with 2 vectors
   NREBOOT  =      0    no. of reboots
   NMIN     =      0    reboot dimension
   EREF     =   0.00    reference energy to select bands
   IMIX   =      4    mixing-type and parameters
     AMIX     =   0.40;   BMIX     =  1.00
     AMIX_MAG =   1.60;   BMIX_MAG =  1.00
     AMIN     =   0.10
     WC   =   100.;   INIMIX=   1;  MIXPRE=   1;  MAXMIX= -45

 Intra band minimization:
   WEIMIN = 0.0000     energy-eigenvalue tresh-hold
   EBREAK =  0.27E-08  absolut break condition
   DEPER  =   0.30     relativ break condition  

   TIME   =   0.40     timestep for ELM

  volume/ion in A,a.u.               =      10.15        68.53
  Fermi-wavevector in a.u.,A,eV,Ry     =   1.512636  2.858467 31.131030  2.288066
  Thomas-Fermi vector in A             =   2.622533
 
 Write flags
   LWAVE        =      F    write WAVECAR
   LDOWNSAMPLE  =      F    k-point downsampling of WAVECAR
   LCHARG       =      F    write CHGCAR
   LVTOT        =      F    write LOCPOT, total local potential
   LVHAR        =      F    write LOCPOT, Hartree potential only
   LELF         =      F    write electronic localiz. function (ELF)
   LORBIT       =     11    0 simple, 1 ext, 2 COOP (PROOUT), +10 PAW based schemes


 Dipole corrections
   LMONO  =      F    monopole corrections only (constant potential shift)
   LDIPOL =      F    correct potential (dipole corrections)
   IDIPOL =      0    1-x, 2-y, 3-z, 4-all directions 
   EPSILON=  1.0000000 bulk dielectric constant

 Exchange correlation treatment:
   GGA     =    --    GGA type
   LEXCH   =     2    internal setting for exchange type
   VOSKOWN=      0    Vosko Wilk Nusair interpolation
   LHFCALC =     F    Hartree Fock is set to
   LHFONE  =     F    Hartree Fock one center treatment
   AEXX    =    0.0000 exact exchange contribution

 Linear response parameters
   LEPSILON=     F    determine dielectric tensor
   LRPA    =     F    only Hartree local field effects (RPA)
   LNABLA  =     F    use nabla operator in PAW spheres
   LVEL    =     F    velocity operator in full k-point grid
   LINTERFAST=   F  fast interpolation
   KINTER  =     0    interpolate to denser k-point grid
   CSHIFT  =0.1000    complex shift for real part using Kramers Kronig
   OMEGAMAX=  -1.0    maximum frequency
   DEG_THRESHOLD= 0.2000000E-02 threshold for treating states as degnerate
   RTIME   =   -0.100 relaxation time in fs
  (WPLASMAI=    0.000 imaginary part of plasma frequency in eV, 0.658/RTIME)
   DFIELD  = 0.0000000 0.0000000 0.0000000 field for delta impulse in time
 
 Orbital magnetization related:
   ORBITALMAG=     F  switch on orbital magnetization
   LCHIMAG   =     F  perturbation theory with respect to B field
   DQ        =  0.001000  dq finite difference perturbation B field
   LLRAUG    =     F  two centre corrections for induced B field



--------------------------------------------------------------------------------------------------------


 Static calculation
 charge density and potential will be updated during run
 non-spin polarized calculation
 RMM-DIIS sequential band-by-band and
  variant of blocked Davidson during initial phase
 perform sub-space diagonalisation
    before iterative eigenvector-optimisation
 modified Broyden-mixing scheme, WC =      100.0
 initial mixing is a Kerker type mixing with AMIX =  0.4000 and BMIX =      1.0000
 Hartree-type preconditioning will be used
 using additional bands          153
 real space projection scheme for non local part
 use partial core corrections
 calculate Harris-corrections to forces 
   (improved forces if not selfconsistent)
 use of overlap-Matrix (Vanderbilt PP)
 Gauss-broadening in eV      SIGMA  =   0.05


--------------------------------------------------------------------------------------------------------


  energy-cutoff  :      500.00
  volume of cell :     1939.60
      direct lattice vectors                 reciprocal lattice vectors
    12.881025995  0.000000000  0.000000000     0.077633567  0.000000000  0.000000000
     0.000000000 11.689936215  0.000000000     0.000000000  0.085543666  0.000000000
     0.000000000  0.000000000 12.881025995     0.000000000  0.000000000  0.077633567

  length of vectors
    12.881025995 11.689936215 12.881025995     0.077633567  0.085543666  0.077633567


 
 k-points in units of 2pi/SCALE and weight: pymatgen v2020.8.13 with grid density = 
   0.00000000  0.00000000  0.00000000       0.125
   0.03881678  0.00000000  0.00000000       0.125
   0.00000000  0.00000000  0.03881678       0.125
   0.00000000  0.04277183  0.00000000       0.125
   0.03881678  0.04277183  0.00000000       0.125
   0.00000000  0.04277183  0.03881678       0.125
   0.03881678  0.00000000  0.03881678       0.125
   0.03881678  0.04277183  0.03881678       0.125
 
 k-points in reciprocal lattice and weights: pymatgen v2020.8.13 with grid density = 
   0.00000000  0.00000000  0.00000000       0.125
   0.50000000  0.00000000  0.00000000       0.125
   0.00000000  0.00000000  0.50000000       0.125
   0.00000000  0.50000000  0.00000000       0.125
   0.50000000  0.50000000  0.00000000       0.125
   0.00000000  0.50000000  0.50000000       0.125
   0.50000000  0.00000000  0.50000000       0.125
   0.50000000  0.50000000  0.50000000       0.125
 
 position of ions in fractional coordinates (direct lattice) 
   0.24951459  0.12501255  0.11018813
   0.99999930  0.00000073  0.10978543
   0.50000264  0.11964344  0.36230861
   0.25056914  0.00000284  0.36011023
   0.24968059  0.12504097  0.61021862
   0.99999809  0.99999592  0.61019162
   0.50000741  0.12347464  0.85629945
   0.25011732  0.00000987  0.86029984
   0.24966799  0.37514942  0.11019587
   0.00000490  0.25009060  0.11009441
   0.49999698  0.35891945  0.34376314
   0.24934779  0.24967551  0.36020583
   0.24939712  0.37513556  0.60919175
   0.99999919  0.25000424  0.61007065
   0.49999600  0.37139678  0.86433374
   0.24991960  0.25004948  0.86005552
   0.24966508  0.62485511  0.11019189
   0.99999758  0.50000079  0.11002577
   0.50000524  0.64108289  0.34376304
   0.25130447  0.49999780  0.36015055
   0.24938616  0.62484306  0.60916594
   0.00000278  0.49999716  0.61023133
   0.49999112  0.62860597  0.86433419
   0.25033703  0.50000668  0.85975915
   0.24950911  0.87498699  0.11018337
   0.99999890  0.74990897  0.11008434
   0.50000548  0.88035515  0.36230724
   0.24935286  0.75032275  0.36020173
   0.24968670  0.87495417  0.61022443
   0.00000253  0.74999396  0.61007417
   0.50000019  0.87652894  0.85629350
   0.24991421  0.74995770  0.86004545
   0.75048858  0.12501270  0.11018656
   0.50000037  0.99999447  0.10796108
   0.99999804  0.12496527  0.36009780
   0.74943354  0.99999829  0.36011022
   0.75031925  0.12504383  0.61022179
   0.49999283  0.00000310  0.61087953
   0.99999989  0.12512774  0.85993301
   0.74988264  0.99999934  0.86030556
   0.75033368  0.37514339  0.11019801
   0.50000263  0.24856262  0.10359025
   0.99999930  0.37511817  0.36003829
   0.75065140  0.24967537  0.36020669
   0.75061539  0.37515459  0.60917241
   0.50001192  0.25084099  0.60668946
   0.99999789  0.37505906  0.86009304
   0.75008674  0.25005060  0.86004924
   0.75033021  0.62485873  0.11019818
   0.49999736  0.49999636  0.11032639
   0.00000324  0.62487176  0.36004404
   0.74868650  0.49999812  0.36015037
   0.75061541  0.62484816  0.60917485
   0.49999573  0.50000194  0.62947424
   0.99999592  0.62493820  0.86008759
   0.74964382  0.50000063  0.85978033
   0.75049146  0.87498866  0.11018702
   0.49999877  0.75142280  0.10358815
   0.00001762  0.87501867  0.36009418
   0.75069501  0.75032151  0.36020997
   0.75031608  0.87495659  0.61022126
   0.50001323  0.74915862  0.60668777
   0.99999792  0.87487751  0.85992894
   0.75008405  0.74995054  0.86004910
   0.09830979  0.12506294  0.11033954
   0.40194182  0.12492835  0.10839318
   0.25005391  0.99999826  0.01180180
   0.25056085  0.99999943  0.20836688
   0.34868734  0.12480024  0.36056948
   0.15224021  0.12555086  0.36034664
   0.00000057  0.99999866  0.26224120
   0.49999819  0.99999941  0.45996501
   0.09838963  0.12515115  0.61043998
   0.40246083  0.12624605  0.60839762
   0.25030906  0.00000335  0.51208093
   0.25127346  0.00000195  0.70807152
   0.34880555  0.12523266  0.85928816
   0.15218105  0.12523545  0.85960305
   0.99999976  0.00000109  0.76196313
   0.50000014  0.99999970  0.95603711
   0.09831800  0.37492916  0.11041806
   0.40248358  0.37467374  0.11237837
   0.25049495  0.25023447  0.01201474
   0.25132669  0.25000439  0.20877191
   0.35172125  0.37652891  0.36256530
   0.15284469  0.37491795  0.35966325
   0.99999929  0.24997584  0.26214737
   0.50000086  0.25162887  0.45454990
   0.09830091  0.37500584  0.61044692
   0.40322994  0.37968554  0.60301240
   0.25008295  0.25007275  0.51182802
   0.25216297  0.25108509  0.70786639
   0.34911872  0.37520621  0.86115114
   0.15218440  0.37510513  0.85978755
   0.99999871  0.25008310  0.76202945
   0.49999872  0.24807043  0.95717552
   0.09831700  0.62507175  0.11041585
   0.40248196  0.62532864  0.11237864
   0.25083935  0.50000082  0.01232825
   0.25065020  0.50000102  0.20873451
   0.35172250  0.62346769  0.36256422
   0.15284647  0.62508083  0.35966381
   0.99999753  0.49999882  0.26211704
   0.09829979  0.62499558  0.61044391
   0.40323095  0.62031354  0.60301148
   0.24766756  0.49999320  0.51154870
   0.25222155  0.50000169  0.70812598
   0.34911514  0.62480218  0.86114769
   0.15218086  0.62489663  0.85978656
   0.99999939  0.50000070  0.76201251
   0.50000074  0.50000321  0.96114849
   0.09830901  0.87493642  0.11033803
   0.40194044  0.87506907  0.10839167
   0.25049059  0.74976786  0.01201257
   0.25132663  0.74999664  0.20876823
   0.34868706  0.87520266  0.36056938
   0.15224361  0.87444856  0.36034448
   0.00000164  0.75001809  0.26214671
   0.50000084  0.74837186  0.45454891
   0.09838988  0.87485013  0.61043815
   0.40246155  0.87375514  0.60839710
   0.25008457  0.74992968  0.51182370
   0.25215918  0.74891225  0.70786109
   0.34880308  0.87477056  0.85928811
   0.15217766  0.87477289  0.85960133
   0.99999930  0.74991694  0.76202784
   0.49999895  0.75193154  0.95717503
   0.59805961  0.12492623  0.10839277
   0.90169246  0.12506419  0.11034004
   0.74994536  0.99999889  0.01180276
   0.74943794  0.00000209  0.20836412
   0.84775917  0.12555174  0.36034837
   0.65131191  0.12479578  0.36056799
   0.49999151  0.00000092  0.26090613
   0.00000239  0.99999573  0.45843928
   0.59753993  0.12624052  0.60839511
   0.90160992  0.12515127  0.61043504
   0.74968957  0.00000017  0.51208064
   0.74872549  0.00000056  0.70807077
   0.84781868  0.12523317  0.85960305
   0.65119513  0.12523158  0.85929201
   0.49999896  0.00000231  0.75936163
   0.99999816  0.99999958  0.95831811
   0.59751764  0.37467608  0.11237899
   0.90168149  0.37492703  0.11041791
   0.74950514  0.25023727  0.01201386
   0.74867212  0.25000582  0.20876953
   0.84715213  0.37491904  0.35966416
   0.64827555  0.37653260  0.36256226
   0.49999809  0.24212245  0.25704711
   0.99999884  0.25025794  0.45838826
   0.59676845  0.37969111  0.60300705
   0.90170049  0.37500625  0.61044427
   0.74991151  0.25007141  0.51182451
   0.74783411  0.25108816  0.70786185
   0.84781266  0.37510928  0.85978806
   0.65087644  0.37520226  0.86115264
   0.50000621  0.25291949  0.75995907
   0.99999937  0.24995678  0.95835104
   0.59751635  0.62532707  0.11237743
   0.90167914  0.62507167  0.11041587
   0.74915516  0.50000120  0.01233032
   0.74934898  0.50000107  0.20873523
   0.84715702  0.62507835  0.35966490
   0.64827975  0.62346871  0.36256210
   0.49999640  0.49999928  0.27103937
   0.99999928  0.49999832  0.45829075
   0.59676788  0.62030947  0.60300906
   0.90169916  0.62499668  0.61044204
   0.75233155  0.50000071  0.51154540
   0.74777336  0.50000038  0.70812294
   0.84781261  0.62489223  0.85978939
   0.65087593  0.62479886  0.86115273
   0.49999917  0.50000021  0.76688905
   0.99999923  0.50000041  0.95844879
   0.59805935  0.87506899  0.10839456
   0.90169001  0.87493740  0.11034090
   0.74950487  0.74976670  0.01201484
   0.74867205  0.74999525  0.20876951
   0.84776420  0.87445020  0.36034383
   0.65131703  0.87520089  0.36056752
   0.49999893  0.75787670  0.25704532
   0.00000203  0.74974110  0.45838780
   0.59754069  0.87376057  0.60839604
   0.90161003  0.87484911  0.61043684
   0.74991256  0.74992982  0.51182404
   0.74783468  0.74891351  0.70786242
   0.84781847  0.87476725  0.85960311
   0.65119505  0.87477052  0.85929035
   0.50000535  0.74708309  0.75995869
   0.99999901  0.75004459  0.95834846
 
 position of ions in cartesian coordinates  (Angst):
   3.21400386  1.46138873  1.41933615
  12.88101698  0.00000852  1.41414899
   6.44054700  1.39862420  4.66690668
   3.22758763  0.00003317  4.63858928
   3.21614218  1.46172100  7.86024189
  12.88100134 11.68988853  7.85989417
   6.44060842  1.44341062 11.03001553
   3.22176771  0.00011532 11.08154455
   3.21597989  4.38547280  1.41943584
   0.00006315  2.92354314  1.41812900
   6.44047407  4.19574543  4.42802196
   3.21185537  2.91869083  4.63982069
   3.21249077  4.38531074  7.84701477
  12.88101555  2.92253358  7.85833592
   6.44046143  4.34160470 11.13350543
   3.21922093  2.92306249 11.07839754
   3.21594239  7.30451638  1.41938466
  12.88099488  5.84497732  1.41724475
   6.44058051  7.49421806  4.42802068
   3.23705936  5.84494239  4.63910858
   3.21234963  7.30437552  7.84668231
   0.00003575  5.84493489  7.86040558
   6.44039863  7.34836369 11.13351117
   3.22459773  5.84504623 11.07458001
   3.21393332 10.22854208  1.41927487
  12.88101179  8.76638797  1.41799926
   6.44058357 10.29129550  4.66688896
   3.21192070  8.77122506  4.63976788
   3.21622092 10.22815846  7.86031671
   0.00003255  8.76738160  7.85838125
   6.44051542 10.24656744 11.02993879
   3.21915149  8.76695769 11.07826784
   9.66706296  1.46139053  1.41931594
   6.44051777 11.68987158  1.39064942
  12.88100070  1.46083608  4.63842911
   9.65347294 11.68991618  4.63858907
   9.66488178  1.46175439  7.86028272
   6.44042062  0.00003623  7.86875511
  12.88102456  1.46273529 11.07681943
   9.65925782 11.68992853 11.08161827
   9.66506768  4.38540234  1.41946341
   6.44054689  2.90568122  1.33434873
  12.88101697  4.38510746  4.63766260
   9.66916019  2.91868916  4.63983168
   9.66869638  4.38553323  7.84676559
   6.44066655  2.93231512  7.81478275
  12.88099887  4.38441654 11.07888076
   9.66188684  2.92307556 11.07831665
   9.66502299  7.30455875  1.41946556
   6.44047901  5.84492561  1.42111709
   0.00004171  7.30471105  4.63773660
   9.64385025  5.84494609  4.63910634
   9.66869658  7.30443518  7.84679710
   6.44045801  5.84499083  8.10827404
  12.88097344  7.30548765 11.07881058
   9.65618159  5.84497545 11.07485284
   9.66709998 10.22856162  1.41932193
   6.44049713  8.78408460  1.33432163
   0.00022695 10.22891240  4.63838252
   9.66972196  8.77121060  4.63987397
   9.66484098 10.22818667  7.86027587
   6.44068344  8.75761650  7.81476091
  12.88099925 10.22726232 11.07676702
   9.66185217  8.76687395 11.07831483
   1.26633092  1.46197781  1.42128654
   5.17742305  1.46040450  1.39621531
   3.22095091 11.68991585  0.15201932
   3.22748082 11.68992956  2.68397925
   4.49145064  1.45890687  4.64450489
   1.96101007  1.46768152  4.64163449
   0.00000734 11.68992053  3.37793576
   6.44048971 11.68992926  5.92482119
   1.26735941  1.46300900  7.86309330
   5.18410838  1.47580833  7.83678556
   3.22423748  0.00003911  6.59612779
   3.23665994  0.00002285  9.12068769
   4.49297339  1.46396176 11.06851310
   1.96024806  1.46399442 11.07256928
  12.88102285  0.00001270  9.81486693
   6.44051483 11.68993270 12.31473891
   1.26643666  4.38289798  1.42229790
   5.18440144  4.37991207  1.44754870
   3.22663195  2.92522504  0.15476219
   3.23734559  2.92253532  2.68919638
   4.53053057  4.40159897  4.67021307
   1.96879644  4.38276686  4.63283164
  12.88101682  2.92220160  3.37672710
   6.44052410  2.94152541  5.85506907
   1.26621656  4.38379431  7.86318265
   5.19401538  4.43849975  7.76741841
   3.22132497  2.92333451  6.59286998
   3.24811780  2.93516871  9.11804539
   4.49700728  4.38613667 11.09251021
   1.96029122  4.38495500 11.07494575
  12.88100943  2.92345553  9.81572121
   6.44049654  2.89992754 12.32940279
   1.26642384  7.30704886  1.42226938
   5.18438054  7.31005193  1.44755219
   3.23106824  5.84497765  0.15880055
   3.22863170  5.84498007  2.68871471
   4.53054661  7.28829750  4.67019909
   1.96881934  7.30715502  4.63283883
  12.88099414  5.84495432  3.37633641
   1.26620211  7.30615848  7.86314394
   5.19402830  7.25142573  7.76740653
   3.19021233  5.84488865  6.58927213
   3.24887241  5.84498791  9.12138909
   4.49696114  7.30389766 11.09246583
   1.96024566  7.30500169 11.07493299
  12.88101813  5.84497633  9.81550294
   6.44052256  5.84500566 12.38057863
   1.26632089 10.22795094  1.42126698
   5.17740532 10.22950156  1.39619593
   3.22657580  8.76473841  0.15473428
   3.23734480  8.76741292  2.68914900
   4.49144708 10.23106330  4.64450353
   1.96105389 10.22224792  4.64160664
   0.00002115  8.76766367  3.37671860
   6.44052384  8.74841932  5.85505634
   1.26736256 10.22694226  7.86306965
   5.18411772 10.21414185  7.83677881
   3.22134581  8.76663017  6.59281442
   3.24806889  8.75473638  9.11797714
   4.49294154 10.22601208 11.06851253
   1.96020441 10.22603928 11.07254706
  12.88101693  8.76648121  9.81570043
   6.44049947  8.79003172 12.32939646
   7.70362133  1.46037963  1.39621004
  11.61472407  1.46199242  1.42129288
   9.66006567 11.68992325  0.15203165
   9.65352960  0.00002443  2.68394369
  10.92000787  1.46769185  4.64165670
   8.38956563  1.45885470  4.64448566
   6.44040362  0.00001075  3.36073863
   0.00003077 11.68988635  5.90516832
   7.69692733  1.47574361  7.83675318
  11.61366079  1.46301039  7.86302968
   9.65677089  0.00000201  6.59612400
   9.64435253  0.00000657  9.12067798
  10.92077448  1.46396776 11.07256928
   8.38806137  1.46394914 11.06856268
   6.44049957  0.00002696  9.78135689
  12.88100230 11.68993126 12.34412043
   7.69664032  4.37993943  1.44755671
  11.61458275  4.38287312  1.42229599
   9.65439516  2.92525776  0.15475085
   9.64366509  2.92255214  2.68916573
  10.91218867  4.38277971  4.63284334
   8.35045418  4.40164205  4.67017393
   6.44048841  2.83039602  3.31103047
  12.88101099  2.92549938  5.90451109
   7.68698988  4.43856488  7.76734944
  11.61482747  4.38379911  7.86314853
   9.65962969  2.92331882  6.59282480
   9.63287064  2.93520455  9.11798686
  10.92069692  4.38500352 11.07495238
   8.38395630  4.38609045 11.09252955
   6.44059298  2.95661271  9.78905251
  12.88101790  2.92197887 12.34454460
   7.69662362  7.31003360  1.44753657
  11.61455246  7.30704795  1.42226963
   9.64988713  5.84498209  0.15882717
   9.65238364  5.84498058  2.68872387
  10.91225156  7.30712601  4.63285298
   8.35050837  7.28830940  4.67017179
   6.44046665  5.84495969  3.49126520
  12.88101668  5.84494842  5.90325509
   7.68698254  7.25137816  7.76737539
  11.61481036  7.30617138  7.86311981
   9.69080223  5.84497643  6.58922961
   9.63208813  5.84497253  9.12134998
  10.92069622  7.30495032 11.07496950
   8.38394978  7.30385879 11.09253064
   6.44050226  5.84497052  9.87831782
  12.88101610  5.84497288 12.34580379
   7.70361804 10.22950062  1.39623313
  11.61469246 10.22796240  1.42130404
   9.65439170  8.76472495  0.15476350
   9.64366417  8.76739666  2.68916550
  10.92007265 10.22226712  4.64159826
   8.38963160 10.23104256  4.64447958
   6.44049926  8.85953028  3.31100745
   0.00002620  8.76442564  5.90450522
   7.69693714 10.21420529  7.83676516
  11.61366222 10.22693035  7.86305274
   9.65964323  8.76663180  6.59281877
   9.63287799  8.75475119  9.11799421
  10.92077174 10.22597341 11.07257000
   8.38806040 10.22601154 11.06854132
   6.44058190  8.73335372  9.78904764
  12.88101330  8.76797344 12.34451143
 


--------------------------------------------------------------------------------------------------------


 k-point   1 :   0.0000 0.0000 0.0000  plane waves:   49319
 k-point   2 :   0.5000 0.0000 0.0000  plane waves:   49262
 k-point   3 :   0.0000 0.0000 0.5000  plane waves:   49262
 k-point   4 :   0.0000 0.5000 0.0000  plane waves:   49194
 k-point   5 :   0.5000 0.5000 0.0000  plane waves:   49240
 k-point   6 :   0.0000 0.5000 0.5000  plane waves:   49240
 k-point   7 :   0.5000 0.0000 0.5000  plane waves:   49204
 k-point   8 :   0.5000 0.5000 0.5000  plane waves:   49144

 maximum and minimum number of plane-waves per node :      2507     2394

 maximum number of plane-waves:     49319
 maximum index in each direction: 
   IXMAX=   23   IYMAX=   21   IZMAX=   23
   IXMIN=  -23   IYMIN=  -21   IZMIN=  -23


 real space projection operators:
  total allocation   :      50468.67 KBytes
  max/ min on nodes  :       2968.61       1483.25


 parallel 3D FFT for wavefunctions:
    minimum data exchange during FFTs selected (reduces bandwidth)
 parallel 3D FFT for charge:
    minimum data exchange during FFTs selected (reduces bandwidth)


 total amount of memory used by VASP MPI-rank0   105608. kBytes
=======================================================================

   base      :      30000. kBytes
   nonlr-proj:      15065. kBytes
   fftplans  :       3523. kBytes
   grid      :       5634. kBytes
   one-center:        155. kBytes
   wavefun   :      51231. kBytes
 
     INWAV:  cpu time    0.0000: real time    0.0000
 Broyden mixing: mesh for mixing (old mesh)
   NGX = 47   NGY = 43   NGZ = 47
  (NGX  =192   NGY  =180   NGZ  =192)
  gives a total of  94987 points

 initial charge density was supplied:
 charge density of overlapping atoms calculated
 number of electron    1530.0000000 magnetization 
 keeping initial charge density in first step


--------------------------------------------------------------------------------------------------------


 Maximum index for non-local projection operator          286
 Maximum index for augmentation-charges          781 (set IRDMAX)


--------------------------------------------------------------------------------------------------------


 First call to EWALD:  gamma=   0.142
 Maximum number of real-space cells 3x 3x 3
 Maximum number of reciprocal cells 3x 3x 3

    FEWALD:  cpu time    0.0105: real time    0.0106


--------------------------------------- Iteration      1(   1)  ---------------------------------------


    POTLOK:  cpu time    0.0140: real time    0.0154
    SETDIJ:  cpu time    0.0885: real time    0.0888
     EDDAV:  cpu time   29.5110: real time   29.5882
       DOS:  cpu time    0.0053: real time    0.0054
    --------------------------------------------
      LOOP:  cpu time   29.6188: real time   29.6978

 eigenvalue-minimisations  : 14688
 total energy-change (2. order) : 0.2617702E+05  (-0.7120083E+05)
 number of electron    1530.0000000 magnetization 
 augmentation part     1530.0000000 magnetization 

 Free energy of the ion-electron system (eV)
  ---------------------------------------------------
  alpha Z        PSCENC =      6406.43606640
  Ewald energy   TEWEN  =   -115394.00815764
  -Hartree energ DENC   =    -39712.59542629
  -exchange      EXHF   =         0.00000000
  -V(xc)+E(xc)   XCENC  =      7617.93860009
  PAW double counting   =    124690.42096125  -123910.56504755
  entropy T*S    EENTRO =        -0.02973322
  eigenvalues    EBANDS =     10002.20873860
  atomic energy  EATOM  =    156477.20918771
  Solvation  Ediel_sol  =         0.00000000
  ---------------------------------------------------
  free energy    TOTEN  =     26177.01518935 eV

  energy without entropy =    26177.04492257  energy(sigma->0) =    26177.03005596


--------------------------------------------------------------------------------------------------------




--------------------------------------- Iteration      1(   2)  ---------------------------------------


     EDDAV:  cpu time   29.6159: real time   29.6924
       DOS:  cpu time    0.0052: real time    0.0052
    --------------------------------------------
      LOOP:  cpu time   29.6211: real time   29.6976

 eigenvalue-minimisations  : 14688
 total energy-change (2. order) :-0.2228345E+05  (-0.2124025E+05)
 number of electron    1530.0000000 magnetization 
 augmentation part     1530.0000000 magnetization 

 Free energy of the ion-electron system (eV)
  ---------------------------------------------------
  alpha Z        PSCENC =      6406.43606640
  Ewald energy   TEWEN  =   -115394.00815764
  -Hartree energ DENC   =    -39712.59542629
  -exchange      EXHF   =         0.00000000
  -V(xc)+E(xc)   XCENC  =      7617.93860009
  PAW double counting   =    124690.42096125  -123910.56504755
  entropy T*S    EENTRO =        -0.08662074
  eigenvalues    EBANDS =    -12281.18251705
  atomic energy  EATOM  =    156477.20918771
  Solvation  Ediel_sol  =         0.00000000
  ---------------------------------------------------
  free energy    TOTEN  =      3893.56704618 eV

  energy without entropy =     3893.65366692  energy(sigma->0) =     3893.61035655


--------------------------------------------------------------------------------------------------------




--------------------------------------- Iteration      1(   3)  ---------------------------------------


     EDDAV:  cpu time   33.0788: real time   33.1678
       DOS:  cpu time    0.0041: real time    0.0041
    --------------------------------------------
      LOOP:  cpu time   33.0828: real time   33.1718

 eigenvalue-minimisations  : 17316
 total energy-change (2. order) :-0.5642860E+04  (-0.5419774E+04)
 number of electron    1530.0000000 magnetization 
 augmentation part     1530.0000000 magnetization 

 Free energy of the ion-electron system (eV)
  ---------------------------------------------------
  alpha Z        PSCENC =      6406.43606640
  Ewald energy   TEWEN  =   -115394.00815764
  -Hartree energ DENC   =    -39712.59542629
  -exchange      EXHF   =         0.00000000
  -V(xc)+E(xc)   XCENC  =      7617.93860009
  PAW double counting   =    124690.42096125  -123910.56504755
  entropy T*S    EENTRO =        -0.04080794
  eigenvalues    EBANDS =    -17924.08845643
  atomic energy  EATOM  =    156477.20918771
  Solvation  Ediel_sol  =         0.00000000
  ---------------------------------------------------
  free energy    TOTEN  =     -1749.29308040 eV

  energy without entropy =    -1749.25227246  energy(sigma->0) =    -1749.27267643


--------------------------------------------------------------------------------------------------------




--------------------------------------- Iteration      1(   4)  ---------------------------------------


     EDDAV:  cpu time   37.6873: real time   37.7854
       DOS:  cpu time    0.0037: real time    0.0037
    --------------------------------------------
      LOOP:  cpu time   37.6911: real time   37.7892

 eigenvalue-minimisations  : 20376
 total energy-change (2. order) :-0.6018556E+03  (-0.5981908E+03)
 number of electron    1530.0000000 magnetization 
 augmentation part     1530.0000000 magnetization 

 Free energy of the ion-electron system (eV)
  ---------------------------------------------------
  alpha Z        PSCENC =      6406.43606640
  Ewald energy   TEWEN  =   -115394.00815764
  -Hartree energ DENC   =    -39712.59542629
  -exchange      EXHF   =         0.00000000
  -V(xc)+E(xc)   XCENC  =      7617.93860009
  PAW double counting   =    124690.42096125  -123910.56504755
  entropy T*S    EENTRO =        -0.03278394
  eigenvalues    EBANDS =    -18525.95210205
  atomic energy  EATOM  =    156477.20918771
  Solvation  Ediel_sol  =         0.00000000
  ---------------------------------------------------
  free energy    TOTEN  =     -2351.14870202 eV

  energy without entropy =    -2351.11591808  energy(sigma->0) =    -2351.13231005


--------------------------------------------------------------------------------------------------------




--------------------------------------- Iteration      1(   5)  ---------------------------------------


     EDDAV:  cpu time   41.7419: real time   41.8545
       DOS:  cpu time    0.0037: real time    0.0037
    CHARGE:  cpu time    0.7001: real time    0.7018
    MIXING:  cpu time    0.0020: real time    0.0022
    --------------------------------------------
      LOOP:  cpu time   42.4478: real time   42.5623

 eigenvalue-minimisations  : 23328
 total energy-change (2. order) :-0.4747339E+02  (-0.4738414E+02)
 number of electron    1529.9999572 magnetization 
 augmentation part      320.4533574 magnetization 

 Broyden mixing:
  rms(total) = 0.18017E+02    rms(broyden)= 0.18015E+02
  rms(prec ) = 0.20395E+02
  weight for this iteration     100.00

 Free energy of the ion-electron system (eV)
  ---------------------------------------------------
  alpha Z        PSCENC =      6406.43606640
  Ewald energy   TEWEN  =   -115394.00815764
  -Hartree energ DENC   =    -39712.59542629
  -exchange      EXHF   =         0.00000000
  -V(xc)+E(xc)   XCENC  =      7617.93860009
  PAW double counting   =    124690.42096125  -123910.56504755
  entropy T*S    EENTRO =        -0.03025381
  eigenvalues    EBANDS =    -18573.42802568
  atomic energy  EATOM  =    156477.20918771
  Solvation  Ediel_sol  =         0.00000000
  ---------------------------------------------------
  free energy    TOTEN  =     -2398.62209552 eV

  energy without entropy =    -2398.59184171  energy(sigma->0) =    -2398.60696861


--------------------------------------------------------------------------------------------------------




--------------------------------------- Iteration      1(   6)  ---------------------------------------


    POTLOK:  cpu time    0.0145: real time    0.0196
    SETDIJ:  cpu time    0.0909: real time    0.0911
    EDDIAG:  cpu time    6.4159: real time    6.4326
  RMM-DIIS:  cpu time   14.2949: real time   14.3312
    ORTHCH:  cpu time    3.1950: real time    3.2031
       DOS:  cpu time    0.0040: real time    0.0040
    CHARGE:  cpu time    0.7015: real time    0.7034
    MIXING:  cpu time    0.0014: real time    0.0014
    --------------------------------------------
      LOOP:  cpu time   24.7183: real time   24.7865

 eigenvalue-minimisations  : 21547
 total energy-change (2. order) : 0.5339650E+03  (-0.3055898E+03)
 number of electron    1529.9999703 magnetization 
 augmentation part      328.1274665 magnetization 

 Broyden mixing:
  rms(total) = 0.49522E+01    rms(broyden)= 0.49468E+01
  rms(prec ) = 0.53305E+01
  weight for this iteration     100.00

 eigenvalues of (default mixing * dielectric matrix)
  average eigenvalue GAMMA=   0.9206
  0.9206

 Free energy of the ion-electron system (eV)
  ---------------------------------------------------
  alpha Z        PSCENC =      6406.43606640
  Ewald energy   TEWEN  =   -115394.00815764
  -Hartree energ DENC   =    -39202.89872963
  -exchange      EXHF   =         0.00000000
  -V(xc)+E(xc)   XCENC  =      7680.44163964
  PAW double counting   =    144338.15023075  -143779.19979536
  entropy T*S    EENTRO =        -0.03352221
  eigenvalues    EBANDS =    -18390.75405874
  atomic energy  EATOM  =    156477.20918771
  Solvation  Ediel_sol  =         0.00000000
  ---------------------------------------------------
  free energy    TOTEN  =     -1864.65713907 eV

  energy without entropy =    -1864.62361686  energy(sigma->0) =    -1864.64037796


--------------------------------------------------------------------------------------------------------




--------------------------------------- Iteration      1(   7)  ---------------------------------------


    POTLOK:  cpu time    0.0140: real time    0.0194
    SETDIJ:  cpu time    0.0879: real time    0.0881
    EDDIAG:  cpu time    6.4673: real time    6.4840
  RMM-DIIS:  cpu time   13.7768: real time   13.8116
    ORTHCH:  cpu time    3.2371: real time    3.2456
       DOS:  cpu time    0.0060: real time    0.0060
    CHARGE:  cpu time    0.6995: real time    0.7012
    MIXING:  cpu time    0.0013: real time    0.0013
    --------------------------------------------
      LOOP:  cpu time   24.2898: real time   24.3571

 eigenvalue-minimisations  : 21014
 total energy-change (2. order) : 0.5118589E+01  (-0.2932136E+02)
 number of electron    1529.9999681 magnetization 
 augmentation part      318.3977437 magnetization 

 Broyden mixing:
  rms(total) = 0.41977E+01    rms(broyden)= 0.41976E+01
  rms(prec ) = 0.42849E+01
  weight for this iteration     100.00

 eigenvalues of (default mixing * dielectric matrix)
  average eigenvalue GAMMA=   2.2062
  0.8367  3.5756

 Free energy of the ion-electron system (eV)
  ---------------------------------------------------
  alpha Z        PSCENC =      6406.43606640
  Ewald energy   TEWEN  =   -115394.00815764
  -Hartree energ DENC   =    -39068.70506640
  -exchange      EXHF   =         0.00000000
  -V(xc)+E(xc)   XCENC  =      7656.90217229
  PAW double counting   =    153417.68613852  -152864.87584301
  entropy T*S    EENTRO =        -0.03721684
  eigenvalues    EBANDS =    -18490.14583091
  atomic energy  EATOM  =    156477.20918771
  Solvation  Ediel_sol  =         0.00000000
  ---------------------------------------------------
  free energy    TOTEN  =     -1859.53854987 eV

  energy without entropy =    -1859.50133303  energy(sigma->0) =    -1859.51994145


--------------------------------------------------------------------------------------------------------




--------------------------------------- Iteration      1(   8)  ---------------------------------------


    POTLOK:  cpu time    0.0191: real time    0.0196
    SETDIJ:  cpu time    0.0878: real time    0.0880
    EDDIAG:  cpu time    6.4488: real time    6.4651
[...]
      1.96025      1.46399     11.07257         0.001686     -0.000046     -0.000110
     12.88102      0.00001      9.81487        -0.000231      0.000173     -0.000663
      6.44051     11.68993     12.31474        -0.000023      0.000213     -0.013064
      1.26644      4.38290      1.42230         0.003568     -0.000734      0.000574
      5.18440      4.37991      1.44755        -0.003160     -0.001647     -0.001885
      3.22663      2.92523      0.15476        -0.000451      0.001156     -0.001539
      3.23735      2.92254      2.68920         0.002522      0.003046      0.001298
      4.53053      4.40160      4.67021         0.000983      0.001830      0.002838
      1.96880      4.38277      4.63283         0.000340     -0.000172     -0.001253
     12.88102      2.92220      3.37673        -0.000007     -0.000391      0.000521
      6.44052      2.94153      5.85507        -0.000034      0.003400     -0.001063
      1.26622      4.38379      7.86318         0.000550     -0.000605      0.001429
      5.19402      4.43850      7.76742        -0.000594     -0.000743     -0.000756
      3.22132      2.92333      6.59287         0.000008     -0.000035     -0.003025
      3.24812      2.93517      9.11805        -0.000065     -0.001286      0.002301
      4.49701      4.38614     11.09251        -0.001527      0.001005      0.000776
      1.96029      4.38496     11.07495         0.002177     -0.000288     -0.000432
     12.88101      2.92346      9.81572        -0.000131     -0.001656     -0.000042
      6.44050      2.89993     12.32940        -0.000084     -0.002679     -0.008643
      1.26642      7.30705      1.42227         0.003305      0.000791      0.000728
      5.18438      7.31005      1.44755        -0.003195      0.000913     -0.001847
      3.23107      5.84498      0.15880        -0.000882     -0.000094     -0.001486
      3.22863      5.84498      2.68871         0.003245     -0.000096      0.002681
      4.53055      7.28830      4.67020         0.001040     -0.001809      0.002613
      1.96882      7.30716      4.63284         0.000114      0.000178     -0.001125
     12.88099      5.84495      3.37634         0.000053      0.000226      0.003986
      1.26620      7.30616      7.86314         0.000674      0.000347      0.001333
      5.19403      7.25143      7.76741        -0.000897      0.000864     -0.000945
      3.19021      5.84489      6.58927        -0.003721      0.000197     -0.001404
      3.24887      5.84499      9.12139        -0.000636      0.000319      0.004034
      4.49696      7.30390     11.09247        -0.001539     -0.001259      0.001066
      1.96025      7.30500     11.07493         0.002641      0.000221     -0.000362
     12.88102      5.84498      9.81550        -0.000089     -0.000183     -0.000900
      6.44052      5.84501     12.38058        -0.000336     -0.000248     -0.017648
      1.26632     10.22795      1.42127        -0.000019     -0.000828      0.000668
      5.17741     10.22950      1.39620        -0.002838      0.002427     -0.000820
      3.22658      8.76474      0.15473        -0.000308     -0.001400     -0.001607
      3.23734      8.76741      2.68915         0.002172     -0.003255      0.001695
      4.49145     10.23106      4.64450         0.002114      0.000429     -0.000545
      1.96105     10.22225      4.64161        -0.000321      0.000251     -0.000904
      0.00002      8.76766      3.37672        -0.000208      0.000633      0.000431
      6.44052      8.74842      5.85506        -0.000074     -0.003101     -0.000936
      1.26736     10.22694      7.86307         0.001106      0.002316      0.000419
      5.18412     10.21414      7.83678        -0.003108     -0.001289     -0.000821
      3.22135      8.76663      6.59281        -0.000214     -0.000035     -0.002846
      3.24807      8.75474      9.11798        -0.000064      0.001284      0.002232
      4.49294     10.22601     11.06851        -0.001006      0.000871     -0.000465
      1.96020     10.22604     11.07255         0.002235     -0.000182     -0.000142
     12.88102      8.76648      9.81570        -0.000163      0.001682     -0.000264
      6.44050      8.79003     12.32940        -0.000121      0.002672     -0.009278
      7.70362      1.46038      1.39621         0.002800     -0.001777     -0.000780
     11.61472      1.46199      1.42129        -0.000953      0.000744      0.000513
      9.66007     11.68992      0.15203         0.000873      0.000440     -0.001367
      9.65353      0.00002      2.68394         0.000782      0.000140      0.000861
     10.92001      1.46769      4.64166        -0.000190     -0.000014     -0.001217
      8.38957      1.45885      4.64449        -0.001852     -0.000347     -0.000978
      6.44040      0.00001      3.36074         0.000470     -0.000166      0.002023
      0.00003     11.68989      5.90517        -0.000123      0.000152      0.003045
      7.69693      1.47574      7.83675         0.003097      0.001088     -0.001052
     11.61366      1.46301      7.86303        -0.001278     -0.002396      0.000624
      9.65677      0.00000      6.59612        -0.001154      0.000037     -0.004430
      9.64435      0.00001      9.12068        -0.000913      0.000011      0.002694
     10.92077      1.46397     11.07257        -0.001953     -0.000098     -0.000129
      8.38806      1.46395     11.06856         0.001299     -0.000792     -0.000180
      6.44050      0.00003      9.78136         0.000032      0.000739      0.015691
     12.88100     11.68993     12.34412        -0.000021      0.000131      0.004722
      7.69664      4.37994      1.44756         0.002556     -0.001744     -0.001780
     11.61458      4.38287      1.42230        -0.003368     -0.000637      0.000498
      9.65440      2.92526      0.15475         0.000362      0.000630     -0.001442
      9.64367      2.92255      2.68917        -0.002664      0.002629      0.001949
     10.91219      4.38278      4.63284        -0.000355     -0.000398     -0.001199
      8.35045      4.40164      4.67017        -0.001095      0.001763      0.002778
      6.44049      2.83040      3.31103        -0.000208      0.003635     -0.003428
     12.88101      2.92550      5.90451        -0.000046     -0.000484      0.001728
      7.68699      4.43856      7.76735         0.000608     -0.000838     -0.000915
     11.61483      4.38380      7.86315        -0.000999     -0.000533      0.001329
      9.65963      2.92332      6.59282         0.000116      0.000011     -0.003259
      9.63287      2.93520      9.11799         0.000262     -0.001232      0.002440
     10.92070      4.38500     11.07495        -0.002317     -0.000506     -0.000378
      8.38396      4.38609     11.09253         0.001869      0.001159      0.000829
      6.44059      2.95661      9.78905        -0.000138      0.003013      0.008203
     12.88102      2.92198     12.34454         0.000010      0.000253      0.001233
      7.69662      7.31003      1.44754         0.002837      0.000962     -0.001654
     11.61455      7.30705      1.42227        -0.002972      0.000820      0.000666
      9.64989      5.84498      0.15883         0.001048     -0.000175     -0.001644
      9.65238      5.84498      2.68872        -0.003293      0.000127      0.003348
     10.91225      7.30713      4.63285         0.000176     -0.000305     -0.001124
      8.35051      7.28831      4.67017        -0.000745     -0.001857      0.002700
      6.44047      5.84496      3.49127         0.000083     -0.000003      0.009504
     12.88102      5.84495      5.90326        -0.000033      0.000088      0.000309
      7.68698      7.25138      7.76738         0.001041      0.001013     -0.001060
     11.61481      7.30617      7.86312        -0.000760      0.000398      0.001392
      9.69080      5.84498      6.58923         0.003900      0.000183     -0.001498
      9.63209      5.84497      9.12135         0.000165      0.000126      0.003825
     10.92070      7.30495     11.07497        -0.002548      0.000555     -0.000541
      8.38395      7.30386     11.09253         0.001871     -0.001139      0.000713
      6.44050      5.84497      9.87832        -0.000127      0.000037      0.005539
     12.88102      5.84497     12.34580        -0.000016     -0.000117     -0.001731
      7.70362     10.22950      1.39623         0.002621      0.002577     -0.000820
     11.61469     10.22796      1.42130        -0.000184     -0.000947      0.000594
      9.65439      8.76472      0.15476         0.000452     -0.001064     -0.001857
      9.64366      8.76740      2.68917        -0.002044     -0.002986      0.001995
     10.92007     10.22227      4.64160         0.000752      0.000457     -0.001135
      8.38963     10.23104      4.64448        -0.001869      0.000290     -0.000925
      6.44050      8.85953      3.31101        -0.000051     -0.003045     -0.003134
      0.00003      8.76443      5.90451        -0.000174      0.000183      0.001535
      7.69694     10.21421      7.83677         0.002956     -0.001065     -0.001071
     11.61366     10.22693      7.86305        -0.001171      0.002140      0.000510
      9.65964      8.76663      6.59282         0.000448     -0.000212     -0.002892
      9.63288      8.75475      9.11799         0.000125      0.001075      0.002229
     10.92077     10.22597     11.07257        -0.002118      0.000186     -0.000261
      8.38806     10.22601     11.06854         0.001228      0.000721     -0.000174
      6.44058      8.73335      9.78905        -0.000420     -0.002817      0.008059
     12.88101      8.76797     12.34451        -0.000149     -0.000241      0.001580
 -----------------------------------------------------------------------------------
    total drift:                                0.009280     -0.001446     -0.188504


--------------------------------------------------------------------------------------------------------



  FREE ENERGIE OF THE ION-ELECTRON SYSTEM (eV)
  ---------------------------------------------------
  free  energy   TOTEN  =     -1870.83552600 eV

  energy  without entropy=    -1870.77368932  energy(sigma->0) =    -1870.80460766
 


--------------------------------------------------------------------------------------------------------


    POTLOK:  cpu time    0.1100: real time    0.1103


--------------------------------------------------------------------------------------------------------


     LOOP+:  cpu time 3143.6492: real time 3152.6979
    4ORBIT:  cpu time    0.0000: real time    0.0000



 total charge

# of ion       s       p       d       tot
------------------------------------------
    1        2.233   6.326   1.783  10.343
    2        2.233   6.326   1.781  10.340
    3        2.235   6.334   1.830  10.399
    4        2.233   6.326   1.785  10.345
    5        2.233   6.326   1.783  10.341
    6        2.233   6.326   1.782  10.340
    7        2.232   6.325   1.793  10.350
    8        2.233   6.325   1.781  10.339
    9        2.233   6.326   1.784  10.344
   10        2.233   6.327   1.784  10.344
   11        2.252   6.315   1.937  10.504
   12        2.232   6.324   1.783  10.339
   13        2.233   6.327   1.785  10.345
   14        2.234   6.327   1.784  10.344
   15        2.238   6.333   1.799  10.369
   16        2.233   6.325   1.782  10.340
   17        2.233   6.326   1.784  10.344
   18        2.233   6.326   1.783  10.342
   19        2.252   6.315   1.937  10.504
   20        2.233   6.327   1.783  10.343
   21        2.233   6.327   1.785  10.345
   22        2.233   6.327   1.783  10.343
   23        2.238   6.333   1.799  10.369
   24        2.233   6.326   1.782  10.341
   25        2.233   6.326   1.783  10.343
   26        2.233   6.327   1.784  10.344
   27        2.235   6.334   1.830  10.399
   28        2.232   6.324   1.783  10.339
   29        2.233   6.326   1.783  10.341
   30        2.234   6.327   1.784  10.344
   31        2.232   6.325   1.793  10.350
   32        2.233   6.325   1.782  10.340
   33        2.233   6.326   1.783  10.343
   34        2.233   6.325   1.786  10.344
   35        2.233   6.326   1.782  10.340
   36        2.233   6.326   1.785  10.345
   37        2.233   6.326   1.783  10.341
   38        2.235   6.331   1.797  10.363
   39        2.233   6.326   1.781  10.340
   40        2.233   6.325   1.781  10.339
   41        2.233   6.326   1.784  10.344
   42        2.238   6.337   1.813  10.388
   43        2.232   6.324   1.779  10.335
   44        2.232   6.324   1.783  10.339
   45        2.233   6.327   1.785  10.345
   46        2.230   6.318   1.769  10.317
   47        2.233   6.326   1.782  10.340
   48        2.233   6.325   1.782  10.340
   49        2.233   6.326   1.784  10.344
   50        2.230   6.318   1.782  10.330
   51        2.232   6.324   1.779  10.335
   52        2.233   6.327   1.783  10.343
   53        2.233   6.327   1.785  10.345
   54        2.254   6.326   1.934  10.514
   55        2.233   6.326   1.782  10.340
   56        2.233   6.326   1.782  10.341
   57        2.233   6.326   1.783  10.343
   58        2.238   6.337   1.813  10.388
   59        2.233   6.326   1.782  10.340
   60        2.232   6.324   1.783  10.339
   61        2.233   6.326   1.783  10.341
   62        2.230   6.318   1.769  10.317
   63        2.233   6.326   1.781  10.340
   64        2.233   6.325   1.782  10.340
   65        1.564   3.494   0.000   5.058
   66        1.565   3.493   0.000   5.058
   67        1.564   3.493   0.000   5.057
   68        1.564   3.493   0.000   5.057
   69        1.564   3.495   0.000   5.059
   70        1.564   3.493   0.000   5.057
   71        1.564   3.492   0.000   5.056
   72        1.569   3.516   0.000   5.085
   73        1.564   3.493   0.000   5.058
   74        1.564   3.491   0.000   5.055
   75        1.564   3.492   0.000   5.057
   76        1.564   3.493   0.000   5.057
   77        1.564   3.493   0.000   5.057
   78        1.564   3.493   0.000   5.057
   79        1.564   3.493   0.000   5.058
   80        1.564   3.490   0.000   5.054
   81        1.564   3.494   0.000   5.058
   82        1.564   3.492   0.000   5.056
   83        1.564   3.493   0.000   5.057
   84        1.564   3.492   0.000   5.056
   85        1.562   3.486   0.000   5.048
   86        1.564   3.492   0.000   5.056
   87        1.564   3.493   0.000   5.057
   88        1.565   3.493   0.000   5.058
   89        1.564   3.494   0.000   5.059
   90        1.563   3.488   0.000   5.051
   91        1.565   3.494   0.000   5.059
   92        1.564   3.491   0.000   5.055
   93        1.564   3.493   0.000   5.057
   94        1.564   3.492   0.000   5.057
   95        1.564   3.493   0.000   5.058
   96        1.568   3.519   0.000   5.087
   97        1.564   3.494   0.000   5.058
   98        1.564   3.492   0.000   5.056
   99        1.564   3.492   0.000   5.056
  100        1.564   3.493   0.000   5.058
  101        1.562   3.486   0.000   5.048
  102        1.564   3.492   0.000   5.056
  103        1.565   3.493   0.000   5.057
  104        1.564   3.494   0.000   5.059
  105        1.563   3.488   0.000   5.051
  106        1.565   3.497   0.000   5.062
  107        1.564   3.492   0.000   5.056
  108        1.564   3.493   0.000   5.057
  109        1.564   3.492   0.000   5.057
  110        1.564   3.493   0.000   5.058
  111        1.563   3.494   0.000   5.057
  112        1.564   3.494   0.000   5.058
  113        1.565   3.493   0.000   5.058
  114        1.564   3.493   0.000   5.057
  115        1.564   3.492   0.000   5.057
  116        1.564   3.495   0.000   5.059
  117        1.564   3.493   0.000   5.058
  118        1.564   3.493   0.000   5.057
  119        1.565   3.493   0.000   5.058
  120        1.564   3.493   0.000   5.058
  121        1.564   3.491   0.000   5.055
  122        1.565   3.494   0.000   5.059
  123        1.564   3.491   0.000   5.055
  124        1.564   3.493   0.000   5.057
  125        1.564   3.492   0.000   5.057
  126        1.564   3.493   0.000   5.058
  127        1.568   3.519   0.000   5.087
  128        1.565   3.493   0.000   5.058
  129        1.564   3.494   0.000   5.058
  130        1.564   3.493   0.000   5.057
  131        1.564   3.493   0.000   5.057
  132        1.564   3.493   0.000   5.058
  133        1.564   3.495   0.000   5.059
  134        1.565   3.492   0.000   5.057
  135        1.564   3.492   0.000   5.057
  136        1.564   3.491   0.000   5.055
  137        1.564   3.493   0.000   5.058
  138        1.564   3.492   0.000   5.057
  139        1.564   3.493   0.000   5.057
  140        1.564   3.493   0.000   5.057
  141        1.564   3.493   0.000   5.057
  142        1.567   3.512   0.000   5.079
  143        1.564   3.492   0.000   5.057
  144        1.564   3.492   0.000   5.056
  145        1.564   3.494   0.000   5.058
  146        1.564   3.493   0.000   5.057
  147        1.564   3.492   0.000   5.057
  148        1.564   3.492   0.000   5.056
  149        1.562   3.486   0.000   5.048
  150        1.573   3.512   0.000   5.085
  151        1.564   3.493   0.000   5.057
  152        1.563   3.488   0.000   5.051
  153        1.564   3.494   0.000   5.059
  154        1.565   3.494   0.000   5.059
  155        1.564   3.491   0.000   5.055
  156        1.564   3.492   0.000   5.057
  157        1.564   3.493   0.000   5.057
  158        1.563   3.483   0.000   5.046
  159        1.564   3.492   0.000   5.057
  160        1.564   3.492   0.000   5.056
  161        1.564   3.494   0.000   5.058
  162        1.564   3.492   0.000   5.056
  163        1.564   3.493   0.000   5.058
  164        1.564   3.492   0.000   5.056
  165        1.562   3.486   0.000   5.048
  166        1.563   3.500   0.000   5.062
  167        1.564   3.492   0.000   5.056
  168        1.563   3.488   0.000   5.051
  169        1.564   3.494   0.000   5.059
  170        1.565   3.497   0.000   5.062
  171        1.564   3.492   0.000   5.056
  172        1.564   3.492   0.000   5.057
  173        1.564   3.493   0.000   5.057
  174        1.570   3.530   0.000   5.100
  175        1.564   3.493   0.000   5.057
  176        1.565   3.493   0.000   5.058
  177        1.564   3.494   0.000   5.058
  178        1.564   3.493   0.000   5.057
  179        1.564   3.492   0.000   5.057
  180        1.564   3.493   0.000   5.058
  181        1.564   3.495   0.000   5.059
  182        1.573   3.512   0.000   5.085
  183        1.564   3.493   0.000   5.057
  184        1.564   3.491   0.000   5.055
  185        1.564   3.493   0.000   5.058
  186        1.565   3.494   0.000   5.059
  187        1.564   3.491   0.000   5.055
  188        1.564   3.493   0.000   5.057
  189        1.564   3.493   0.000   5.057
  190        1.563   3.483   0.000   5.046
  191        1.564   3.492   0.000   5.057
--------------------------------------------------
tot        341.663 848.569 114.7551304.987
 

 total amount of memory used by VASP MPI-rank0   105608. kBytes
=======================================================================

   base      :      30000. kBytes
   nonlr-proj:      15065. kBytes
   fftplans  :       3523. kBytes
   grid      :       5634. kBytes
   one-center:        155. kBytes
   wavefun   :      51231. kBytes
 
  
  
 General timing and accounting informations for this job:
 ========================================================
  
                  Total CPU time used (sec):     3187.988
                            User time (sec):     3175.393
                          System time (sec):       12.594
                         Elapsed time (sec):     3198.117
  
                   Maximum memory used (kb):      358556.
                   Average memory used (kb):          N/A
  
                          Minor page faults:       132372
                          Major page faults:            0
                 Voluntary context switches:        22673
