 **********************************************************************
                          MRCC program system
 **********************************************************************
 
                              Written by
 Mihaly Kallay, Peter R. Nagy, David Mester, Zoltan Rolik, Gyula Samu,
   Jozsef Csontos, Jozsef Csoka, P. Bernat Szabo, Laszlo Gyevi-Nagy,
    Bence Hegely, Istvan Ladjanszki, Lorant Szegedy, Bence Ladoczki,
       Klara Petrov, Mate Farkas, Pal D. Mezei, and Adam Ganyecz
 
        Department of Physical Chemistry and Materials Science
            Budapest University of Technology and Economics
                  Budapest P.O.Box 91, H-1521 Hungary
 
                              www.mrcc.hu
 
                    Release date: February 22, 2020

 ************************ 2021-11-18 17:33:01 *************************
 Executing minp...

 Reading input from MINP...
 
 Input file:
 
calc=SCF
dft=PBE
scftype=rks
verbosity=3
mem=490GB
symm=off
unit=angs
scfiguess=mo
scfmaxit=1000

charge=-30
basis=special
def2-SVP
def2-SVP
def2-SVP
def2-SVP
def2-SVP
def2-SVP
def2-SVP
def2-SVP
def2-SVP
def2-SVP
def2-SVP
def2-SVP
def2-SVP
def2-SVP
def2-SVP
def2-SVP
def2-SVP
def2-SVP
def2-SVP
def2-SVP
def2-SVP
def2-SVP
def2-SVP
def2-SVP
def2-SVP
def2-SVP
def2-SVP
def2-SVP
def2-SVP
def2-SVP
def2-SVP
def2-SVP
def2-SVP
def2-SVP
def2-SVP
def2-SVP
nothing
nothing
nothing
nothing
nothing
nothing
nothing
nothing
nothing
nothing
nothing
nothing
nothing
nothing
nothing
nothing
nothing
nothing
nothing
nothing
nothing
nothing
nothing
nothing
nothing
nothing
nothing
nothing
nothing
nothing
nothing
nothing
nothing
nothing
nothing
nothing
nothing
nothing
nothing
nothing
nothing
nothing
nothing
nothing
nothing
nothing
nothing
nothing
nothing
nothing
nothing
nothing
nothing
nothing
nothing
nothing
nothing
nothing
nothing
nothing
nothing
nothing
nothing
nothing
nothing
nothing
nothing
nothing
nothing
nothing
nothing
nothing
nothing
nothing
nothing
nothing
nothing
nothing
nothing
nothing
nothing
nothing
nothing
nothing
nothing
nothing
nothing
nothing
nothing
nothing
nothing
nothing
nothing
nothing
nothing
nothing
nothing
nothing
nothing
nothing
nothing
nothing
nothing
nothing
nothing
nothing
nothing
nothing
nothing
nothing
nothing
nothing
nothing
nothing
nothing
nothing
nothing
nothing
nothing
nothing
nothing
nothing
nothing
nothing
nothing
nothing
nothing
nothing
nothing
nothing
nothing
nothing
nothing
nothing
nothing
nothing
nothing
nothing
nothing
nothing
nothing
nothing
nothing
nothing
nothing
nothing
nothing
nothing
nothing
nothing
nothing
nothing
nothing
nothing
nothing
nothing
nothing
nothing
nothing
nothing
nothing
nothing
nothing
nothing
nothing
nothing
nothing
nothing
nothing
nothing
nothing
nothing
nothing
nothing
nothing
nothing
nothing
nothing
nothing
nothing
nothing
nothing
nothing
nothing
nothing
nothing

dfbasis_scf=special
def2-QZVPP-RI-JK
def2-QZVPP-RI-JK
def2-QZVPP-RI-JK
def2-QZVPP-RI-JK
def2-QZVPP-RI-JK
def2-QZVPP-RI-JK
def2-QZVPP-RI-JK
def2-QZVPP-RI-JK
def2-QZVPP-RI-JK
def2-QZVPP-RI-JK
def2-QZVPP-RI-JK
def2-QZVPP-RI-JK
def2-QZVPP-RI-JK
def2-QZVPP-RI-JK
def2-QZVPP-RI-JK
def2-QZVPP-RI-JK
def2-QZVPP-RI-JK
def2-QZVPP-RI-JK
def2-QZVPP-RI-JK
def2-QZVPP-RI-JK
def2-QZVPP-RI-JK
def2-QZVPP-RI-JK
def2-QZVPP-RI-JK
def2-QZVPP-RI-JK
def2-QZVPP-RI-JK
def2-QZVPP-RI-JK
def2-QZVPP-RI-JK
def2-QZVPP-RI-JK
def2-QZVPP-RI-JK
def2-QZVPP-RI-JK
def2-QZVPP-RI-JK
def2-QZVPP-RI-JK
def2-QZVPP-RI-JK
def2-QZVPP-RI-JK
def2-QZVPP-RI-JK
def2-QZVPP-RI-JK
nothing
nothing
nothing
nothing
nothing
nothing
nothing
nothing
nothing
nothing
nothing
nothing
nothing
nothing
nothing
nothing
nothing
nothing
nothing
nothing
nothing
nothing
nothing
nothing
nothing
nothing
nothing
nothing
nothing
nothing
nothing
nothing
nothing
nothing
nothing
nothing
nothing
nothing
nothing
nothing
nothing
nothing
nothing
nothing
nothing
nothing
nothing
nothing
nothing
nothing
nothing
nothing
nothing
nothing
nothing
nothing
nothing
nothing
nothing
nothing
nothing
nothing
nothing
nothing
nothing
nothing
nothing
nothing
nothing
nothing
nothing
nothing
nothing
nothing
nothing
nothing
nothing
nothing
nothing
nothing
nothing
nothing
nothing
nothing
nothing
nothing
nothing
nothing
nothing
nothing
nothing
nothing
nothing
nothing
nothing
nothing
nothing
nothing
nothing
nothing
nothing
nothing
nothing
nothing
nothing
nothing
nothing
nothing
nothing
nothing
nothing
nothing
nothing
nothing
nothing
nothing
nothing
nothing
nothing
nothing
nothing
nothing
nothing
nothing
nothing
nothing
nothing
nothing
nothing
nothing
nothing
nothing
nothing
nothing
nothing
nothing
nothing
nothing
nothing
nothing
nothing
nothing
nothing
nothing
nothing
nothing
nothing
nothing
nothing
nothing
nothing
nothing
nothing
nothing
nothing
nothing
nothing
nothing
nothing
nothing
nothing
nothing
nothing
nothing
nothing
nothing
nothing
nothing
nothing
nothing
nothing
nothing
nothing
nothing
nothing
nothing
nothing
nothing
nothing
nothing
nothing
nothing
nothing
nothing
nothing
nothing

ecp=special
none
none
none
none
none
none
none
none
none
none
none
none
none
none
none
none
none
none
none
none
none
none
none
none
none
none
none
none
none
none
none
none
none
none
none
none
ECP-22
ECP-22
ECP-22
ECP-22
ECP-22
ECP-22
ECP-22
ECP-22
ECP-22
ECP-22
ECP-22
ECP-22
ECP-22
ECP-22
ECP-22
ECP-22
ECP-22
ECP-22
ECP-22
ECP-22
ECP-22
ECP-22
ECP-22
ECP-22
ECP-22
ECP-22
ECP-22
ECP-22
ECP-22
ECP-22
ECP-22
ECP-22
ECP-22
ECP-22
ECP-22
ECP-22
ECP-22
ECP-22
ECP-22
ECP-22
ECP-22
ECP-22
ECP-22
ECP-22
ECP-22
ECP-22
ECP-22
ECP-22
ECP-22
ECP-22
ECP-22
ECP-22
ECP-22
ECP-22
ECP-22
ECP-22
ECP-22
ECP-22
ECP-22
ECP-22
ECP-22
ECP-22
ECP-22
ECP-22
ECP-22
ECP-22
ECP-22
ECP-22
ECP-22
ECP-22
ECP-22
ECP-22
ECP-22
ECP-22
ECP-22
ECP-22
ECP-22
ECP-22
ECP-22
ECP-22
ECP-22
ECP-22
ECP-22
ECP-22
ECP-22
ECP-22
ECP-22
ECP-22
ECP-22
ECP-22
ECP-22
ECP-22
ECP-22
ECP-22
ECP-22
ECP-22
ECP-22
ECP-22
ECP-22
ECP-22
ECP-22
ECP-22
ECP-22
ECP-22
ECP-22
ECP-22
ECP-22
ECP-22
ECP-22
ECP-22
ECP-22
ECP-22
ECP-22
ECP-22
ECP-22
ECP-22
ECP-22
ECP-22
ECP-22
ECP-22
ECP-22
ECP-22
ECP-22
ECP-22
ECP-22
ECP-22
ECP-22
ECP-22
ECP-22
ECP-22
ECP-22
ECP-22
ECP-22
ECP-22
ECP-22
ECP-22
ECP-22
ECP-22
ECP-22
ECP-22
ECP-22
ECP-22
ECP-22
ECP-22
ECP-22
ECP-22
ECP-22
ECP-22
ECP-22
ECP-22
ECP-22
ECP-22
ECP-22
ECP-22
ECP-22
ECP-22
ECP-22
ECP-22
ECP-22
ECP-22
ECP-22
ECP-22
ECP-22
ECP-22
ECP-22
ECP-22
ECP-22
ECP-22
ECP-22
ECP-22
ECP-22
ECP-22
ECP-22
ECP-22
ECP-22
ECP-22
ECP-22
ECP-22
ECP-22
ECP-22
ECP-22
ECP-22
ECP-22
ECP-22
ECP-22
ECP-22

unit=angs
geom=xyz
222

O     0.00000000000    0.00000000000    0.00000000000
Ti    0.00000000000    1.48054676798   -1.27209143018
Ti    0.00000000000   -1.48054676798   -1.27209143018
Ti    0.00000000000    0.00000000000    1.98192821856
O    -0.00000000000    0.00000000000   -2.54418286035
O    -1.27209143018    1.48054676798    1.98192821856
O     1.27209143018    1.48054676798    1.98192821856
O     1.27209143018   -1.48054676798    1.98192821856
O    -1.27209143018   -1.48054676798    1.98192821856
O    -1.98192821856    1.48054676798   -1.27209143018
O     1.98192821856    1.48054676798   -1.27209143018
O     1.98192821856   -1.48054676798   -1.27209143018
O    -1.98192821856   -1.48054676798   -1.27209143018
O     0.00000000000    2.96109353596    0.00000000000
O     0.00000000000   -2.96109353596    0.00000000000
O    -3.25401964873    0.00000000000    0.70983678838
O     3.25401964873    0.00000000000    0.70983678838
Ti   -3.25401964873    0.00000000000   -1.27209143018
Ti    3.25401964873    0.00000000000   -1.27209143018
Ti    0.00000000000    2.96109353596    1.98192821856
Ti    0.00000000000   -2.96109353596    1.98192821856
O    -0.00000000000    2.96109353596   -2.54418286035
O    -0.00000000000   -2.96109353596   -2.54418286035
O    -0.00000000000    0.00000000000    3.96385643712
O    -3.25401964873    0.00000000000   -3.25401964873
O     3.25401964873    0.00000000000   -3.25401964873
O    -4.52611107891    1.48054676798   -1.27209143018
O     4.52611107891    1.48054676798   -1.27209143018
O     4.52611107891   -1.48054676798   -1.27209143018
O    -4.52611107891   -1.48054676798   -1.27209143018
O    -0.00000000000    2.96109353596    3.96385643712
O    -0.00000000000   -2.96109353596    3.96385643712
O    -1.27209143018    4.44164030394    1.98192821856
O     1.27209143018    4.44164030394    1.98192821856
O     1.27209143018   -4.44164030394    1.98192821856
O    -1.27209143018   -4.44164030394    1.98192821856
Ti   -3.25401964873    1.48054676798    1.98192821856
Ti    3.25401964873    1.48054676798    1.98192821856
Ti    3.25401964873   -1.48054676798    1.98192821856
Ti   -3.25401964873   -1.48054676798    1.98192821856
Ti    0.00000000000    0.00000000000   -4.52611107891
Ti   -3.25401964873    2.96109353596   -1.27209143018
Ti    3.25401964873    2.96109353596   -1.27209143018
Ti    3.25401964873   -2.96109353596   -1.27209143018
Ti   -3.25401964873   -2.96109353596   -1.27209143018
Ti    0.00000000000    4.44164030394   -1.27209143018
Ti    0.00000000000   -4.44164030394   -1.27209143018
Ti    0.00000000000    2.96109353596   -4.52611107891
Ti    0.00000000000   -2.96109353596   -4.52611107891
Ti    0.00000000000    1.48054676798    5.23594786729
Ti    0.00000000000   -1.48054676798    5.23594786729
Ti   -3.25401964873    1.48054676798   -4.52611107891
Ti    3.25401964873    1.48054676798   -4.52611107891
Ti    3.25401964873   -1.48054676798   -4.52611107891
Ti   -3.25401964873   -1.48054676798   -4.52611107891
Ti   -3.25401964873    4.44164030394    1.98192821856
Ti    3.25401964873    4.44164030394    1.98192821856
Ti    3.25401964873   -4.44164030394    1.98192821856
Ti   -3.25401964873   -4.44164030394    1.98192821856
Ti   -3.25401964873    0.00000000000    5.23594786729
Ti    3.25401964873    0.00000000000    5.23594786729
Ti    0.00000000000    5.92218707193    1.98192821856
Ti    0.00000000000   -5.92218707193    1.98192821856
Ti   -6.50803929747    1.48054676798   -1.27209143018
Ti    6.50803929747    1.48054676798   -1.27209143018
Ti    6.50803929747   -1.48054676798   -1.27209143018
Ti   -6.50803929747   -1.48054676798   -1.27209143018
Ti   -6.50803929747    0.00000000000    1.98192821856
Ti    6.50803929747    0.00000000000    1.98192821856
Ti   -3.25401964873    2.96109353596    5.23594786729
Ti    3.25401964873    2.96109353596    5.23594786729
Ti    3.25401964873   -2.96109353596    5.23594786729
Ti   -3.25401964873   -2.96109353596    5.23594786729
Ti    0.00000000000    4.44164030394    5.23594786729
Ti    0.00000000000   -4.44164030394    5.23594786729
Ti   -3.25401964873    5.92218707193   -1.27209143018
Ti    3.25401964873    5.92218707193   -1.27209143018
Ti    3.25401964873   -5.92218707193   -1.27209143018
Ti   -3.25401964873   -5.92218707193   -1.27209143018
Ti   -3.25401964873    4.44164030394   -4.52611107891
Ti    3.25401964873    4.44164030394   -4.52611107891
Ti    3.25401964873   -4.44164030394   -4.52611107891
Ti   -3.25401964873   -4.44164030394   -4.52611107891
Ti   -6.50803929747    2.96109353596    1.98192821856
Ti    6.50803929747    2.96109353596    1.98192821856
Ti    6.50803929747   -2.96109353596    1.98192821856
Ti   -6.50803929747   -2.96109353596    1.98192821856
Ti    0.00000000000    5.92218707193   -4.52611107891
Ti    0.00000000000   -5.92218707193   -4.52611107891
Ti    0.00000000000    7.40273383991   -1.27209143018
Ti    0.00000000000   -7.40273383991   -1.27209143018
Ti    0.00000000000    1.48054676798   -7.78013072764
Ti    0.00000000000   -1.48054676798   -7.78013072764
Ti   -6.50803929747    0.00000000000   -4.52611107891
Ti    6.50803929747    0.00000000000   -4.52611107891
Ti   -6.50803929747    4.44164030394   -1.27209143018
Ti    6.50803929747    4.44164030394   -1.27209143018
Ti    6.50803929747   -4.44164030394   -1.27209143018
Ti   -6.50803929747   -4.44164030394   -1.27209143018
Ti   -3.25401964873    7.40273383991    1.98192821856
Ti    3.25401964873    7.40273383991    1.98192821856
Ti    3.25401964873   -7.40273383991    1.98192821856
Ti   -3.25401964873   -7.40273383991    1.98192821856
Ti   -3.25401964873    0.00000000000   -7.78013072764
Ti    3.25401964873    0.00000000000   -7.78013072764
Ti   -6.50803929747    2.96109353596   -4.52611107891
Ti    6.50803929747    2.96109353596   -4.52611107891
Ti    6.50803929747   -2.96109353596   -4.52611107891
Ti   -6.50803929747   -2.96109353596   -4.52611107891
Ti   -6.50803929747    1.48054676798    5.23594786729
Ti    6.50803929747    1.48054676798    5.23594786729
Ti    6.50803929747   -1.48054676798    5.23594786729
Ti   -6.50803929747   -1.48054676798    5.23594786729
Ti    0.00000000000    0.00000000000    8.48996751602
Ti   -3.25401964873    5.92218707193    5.23594786729
Ti    3.25401964873    5.92218707193    5.23594786729
Ti    3.25401964873   -5.92218707193    5.23594786729
Ti   -3.25401964873   -5.92218707193    5.23594786729
Ti   -3.25401964873    2.96109353596   -7.78013072764
Ti    3.25401964873    2.96109353596   -7.78013072764
Ti    3.25401964873   -2.96109353596   -7.78013072764
Ti   -3.25401964873   -2.96109353596   -7.78013072764
Ti    0.00000000000    4.44164030394   -7.78013072764
Ti    0.00000000000   -4.44164030394   -7.78013072764
Ti    0.00000000000    2.96109353596    8.48996751602
Ti    0.00000000000   -2.96109353596    8.48996751602
Ti   -6.50803929747    5.92218707193    1.98192821856
Ti    6.50803929747    5.92218707193    1.98192821856
Ti    6.50803929747   -5.92218707193    1.98192821856
Ti   -6.50803929747   -5.92218707193    1.98192821856
Ti    0.00000000000    7.40273383991    5.23594786729
Ti    0.00000000000   -7.40273383991    5.23594786729
Ti    0.00000000000    8.88328060789    1.98192821856
Ti    0.00000000000   -8.88328060789    1.98192821856
Ti   -3.25401964873    1.48054676798    8.48996751602
Ti    3.25401964873    1.48054676798    8.48996751602
Ti    3.25401964873   -1.48054676798    8.48996751602
Ti   -3.25401964873   -1.48054676798    8.48996751602
Ti   -3.25401964873    7.40273383991   -4.52611107891
Ti    3.25401964873    7.40273383991   -4.52611107891
Ti    3.25401964873   -7.40273383991   -4.52611107891
Ti   -3.25401964873   -7.40273383991   -4.52611107891
Ti   -6.50803929747    4.44164030394    5.23594786729
Ti    6.50803929747    4.44164030394    5.23594786729
Ti    6.50803929747   -4.44164030394    5.23594786729
Ti   -6.50803929747   -4.44164030394    5.23594786729
Ti   -3.25401964873    8.88328060789   -1.27209143018
Ti    3.25401964873    8.88328060789   -1.27209143018
Ti    3.25401964873   -8.88328060789   -1.27209143018
Ti   -3.25401964873   -8.88328060789   -1.27209143018
Ti   -9.76205894620    0.00000000000   -1.27209143018
Ti    9.76205894620    0.00000000000   -1.27209143018
Ti   -6.50803929747    5.92218707193   -4.52611107891
Ti    6.50803929747    5.92218707193   -4.52611107891
Ti    6.50803929747   -5.92218707193   -4.52611107891
Ti   -6.50803929747   -5.92218707193   -4.52611107891
Ti   -6.50803929747    7.40273383991   -1.27209143018
Ti    6.50803929747    7.40273383991   -1.27209143018
Ti    6.50803929747   -7.40273383991   -1.27209143018
Ti   -6.50803929747   -7.40273383991   -1.27209143018
Ti    0.00000000000    8.88328060789   -4.52611107891
Ti    0.00000000000   -8.88328060789   -4.52611107891
Ti   -9.76205894620    1.48054676798    1.98192821856
Ti    9.76205894620    1.48054676798    1.98192821856
Ti    9.76205894620   -1.48054676798    1.98192821856
Ti   -9.76205894620   -1.48054676798    1.98192821856
Ti   -3.25401964873    4.44164030394    8.48996751602
Ti    3.25401964873    4.44164030394    8.48996751602
Ti    3.25401964873   -4.44164030394    8.48996751602
Ti   -3.25401964873   -4.44164030394    8.48996751602
Ti   -6.50803929747    1.48054676798   -7.78013072764
Ti    6.50803929747    1.48054676798   -7.78013072764
Ti    6.50803929747   -1.48054676798   -7.78013072764
Ti   -6.50803929747   -1.48054676798   -7.78013072764
Ti   -9.76205894620    2.96109353596   -1.27209143018
Ti    9.76205894620    2.96109353596   -1.27209143018
Ti    9.76205894620   -2.96109353596   -1.27209143018
Ti   -9.76205894620   -2.96109353596   -1.27209143018
Ti   -3.25401964873    5.92218707193   -7.78013072764
Ti    3.25401964873    5.92218707193   -7.78013072764
Ti    3.25401964873   -5.92218707193   -7.78013072764
Ti   -3.25401964873   -5.92218707193   -7.78013072764
Ti    0.00000000000    5.92218707193    8.48996751602
Ti    0.00000000000   -5.92218707193    8.48996751602
Ti    0.00000000000   10.36382737587   -1.27209143018
Ti    0.00000000000  -10.36382737587   -1.27209143018
Ti    0.00000000000    7.40273383991   -7.78013072764
Ti    0.00000000000   -7.40273383991   -7.78013072764
Ti   -3.25401964873    8.88328060789    5.23594786729
Ti    3.25401964873    8.88328060789    5.23594786729
Ti    3.25401964873   -8.88328060789    5.23594786729
Ti   -3.25401964873   -8.88328060789    5.23594786729
Ti   -9.76205894620    1.48054676798   -4.52611107891
Ti    9.76205894620    1.48054676798   -4.52611107891
Ti    9.76205894620   -1.48054676798   -4.52611107891
Ti   -9.76205894620   -1.48054676798   -4.52611107891
Ti   -9.76205894620    4.44164030394    1.98192821856
Ti    9.76205894620    4.44164030394    1.98192821856
Ti    9.76205894620   -4.44164030394    1.98192821856
Ti   -9.76205894620   -4.44164030394    1.98192821856
Ti   -3.25401964873   10.36382737587    1.98192821856
Ti    3.25401964873   10.36382737587    1.98192821856
Ti    3.25401964873  -10.36382737587    1.98192821856
Ti   -3.25401964873  -10.36382737587    1.98192821856
Ti   -6.50803929747    7.40273383991    5.23594786729
Ti    6.50803929747    7.40273383991    5.23594786729
Ti    6.50803929747   -7.40273383991    5.23594786729
Ti   -6.50803929747   -7.40273383991    5.23594786729
Ti   -6.50803929747    8.88328060789    1.98192821856
Ti    6.50803929747    8.88328060789    1.98192821856
Ti    6.50803929747   -8.88328060789    1.98192821856
Ti   -6.50803929747   -8.88328060789    1.98192821856
Ti   -9.76205894620    5.92218707193   -1.27209143018
Ti    9.76205894620    5.92218707193   -1.27209143018
Ti    9.76205894620   -5.92218707193   -1.27209143018
Ti   -9.76205894620   -5.92218707193   -1.27209143018
Ti    0.00000000000   10.36382737587    5.23594786729
Ti    0.00000000000  -10.36382737587    5.23594786729
Ti   -9.76205894620    4.44164030394   -4.52611107891
Ti    9.76205894620    4.44164030394   -4.52611107891
Ti    9.76205894620   -4.44164030394   -4.52611107891
Ti   -9.76205894620   -4.44164030394   -4.52611107891

qmmm=Amber
pointcharges
10802
     -3.25401964873    1.48054676798    1.98192821856    4.00000000000
      3.25401964873    1.48054676798    1.98192821856    4.00000000000
      3.25401964873   -1.48054676798    1.98192821856    4.00000000000
     -3.25401964873   -1.48054676798    1.98192821856    4.00000000000
     -3.25401964873    2.96109353596    0.70983678838   -2.00000000000
      3.25401964873    2.96109353596    0.70983678838   -2.00000000000
      3.25401964873   -2.96109353596    0.70983678838   -2.00000000000
     -3.25401964873   -2.96109353596    0.70983678838   -2.00000000000
      0.00000000000    0.00000000000   -4.52611107891    4.00000000000
     -3.25401964873    2.96109353596   -1.27209143018    4.00000000000
      3.25401964873    2.96109353596   -1.27209143018    4.00000000000
      3.25401964873   -2.96109353596   -1.27209143018    4.00000000000
     -3.25401964873   -2.96109353596   -1.27209143018    4.00000000000
     -3.25401964873    0.00000000000    3.25401964873   -2.00000000000
      3.25401964873    0.00000000000    3.25401964873   -2.00000000000
      0.00000000000    4.44164030394   -1.27209143018    4.00000000000
      0.00000000000   -4.44164030394   -1.27209143018    4.00000000000
     -1.27209143018    1.48054676798   -4.52611107891   -2.00000000000
      1.27209143018    1.48054676798   -4.52611107891   -2.00000000000
      1.27209143018   -1.48054676798   -4.52611107891   -2.00000000000
     -1.27209143018   -1.48054676798   -4.52611107891   -2.00000000000
     -1.98192821856    4.44164030394   -1.27209143018   -2.00000000000
      1.98192821856    4.44164030394   -1.27209143018   -2.00000000000
      1.98192821856   -4.44164030394   -1.27209143018   -2.00000000000
     -1.98192821856   -4.44164030394   -1.27209143018   -2.00000000000
      0.00000000000    2.96109353596   -4.52611107891    4.00000000000
      0.00000000000   -2.96109353596   -4.52611107891    4.00000000000
      0.00000000000    1.48054676798    5.23594786729    4.00000000000
      0.00000000000   -1.48054676798    5.23594786729    4.00000000000
     -3.25401964873    2.96109353596    3.25401964873   -2.00000000000
      3.25401964873    2.96109353596    3.25401964873   -2.00000000000
      3.25401964873   -2.96109353596    3.25401964873   -2.00000000000
     -3.25401964873   -2.96109353596    3.25401964873   -2.00000000000
     -3.25401964873    2.96109353596   -3.25401964873   -2.00000000000
      3.25401964873    2.96109353596   -3.25401964873   -2.00000000000
      3.25401964873   -2.96109353596   -3.25401964873   -2.00000000000
     -3.25401964873   -2.96109353596   -3.25401964873   -2.00000000000
     -3.25401964873    1.48054676798   -4.52611107891    4.00000000000
      3.25401964873    1.48054676798   -4.52611107891    4.00000000000
      3.25401964873   -1.48054676798   -4.52611107891    4.00000000000
     -3.25401964873   -1.48054676798   -4.52611107891    4.00000000000
     -1.98192821856    1.48054676798    5.23594786729   -2.00000000000
      1.98192821856    1.48054676798    5.23594786729   -2.00000000000
      1.98192821856   -1.48054676798    5.23594786729   -2.00000000000
     -1.98192821856   -1.48054676798    5.23594786729   -2.00000000000
     -5.23594786729    1.48054676798    1.98192821856   -2.00000000000
      5.23594786729    1.48054676798    1.98192821856   -2.00000000000
      5.23594786729   -1.48054676798    1.98192821856   -2.00000000000
     -5.23594786729   -1.48054676798    1.98192821856   -2.00000000000
     -3.25401964873    4.44164030394    1.98192821856    4.00000000000
      3.25401964873    4.44164030394    1.98192821856    4.00000000000
      3.25401964873   -4.44164030394    1.98192821856    4.00000000000
     -3.25401964873   -4.44164030394    1.98192821856    4.00000000000
      0.00000000000    5.92218707193    0.00000000000   -2.00000000000
      0.00000000000   -5.92218707193    0.00000000000   -2.00000000000
     -3.25401964873    0.00000000000    5.23594786729    4.00000000000
      3.25401964873    0.00000000000    5.23594786729    4.00000000000
      0.00000000000    5.92218707193    1.98192821856    4.00000000000
      0.00000000000   -5.92218707193    1.98192821856    4.00000000000
     -0.00000000000    5.92218707193   -2.54418286035   -2.00000000000
     -0.00000000000   -5.92218707193   -2.54418286035   -2.00000000000
     -4.52611107891    4.44164030394   -1.27209143018   -2.00000000000
      4.52611107891    4.44164030394   -1.27209143018   -2.00000000000
      4.52611107891   -4.44164030394   -1.27209143018   -2.00000000000
     -4.52611107891   -4.44164030394   -1.27209143018   -2.00000000000
     -1.27209143018    4.44164030394   -4.52611107891   -2.00000000000
      1.27209143018    4.44164030394   -4.52611107891   -2.00000000000
      1.27209143018   -4.44164030394   -4.52611107891   -2.00000000000
     -1.27209143018   -4.44164030394   -4.52611107891   -2.00000000000
      0.00000000000    0.00000000000    6.50803929747   -2.00000000000
     -6.50803929747    0.00000000000    0.00000000000   -2.00000000000
      6.50803929747    0.00000000000    0.00000000000   -2.00000000000
      0.00000000000    0.00000000000   -6.50803929747   -2.00000000000
     -3.25401964873    0.00000000000   -5.79820250908   -2.00000000000
      3.25401964873    0.00000000000   -5.79820250908   -2.00000000000
     -3.25401964873    5.92218707193    0.70983678838   -2.00000000000
      3.25401964873    5.92218707193    0.70983678838   -2.00000000000
      3.25401964873   -5.92218707193    0.70983678838   -2.00000000000
     -3.25401964873   -5.92218707193    0.70983678838   -2.00000000000
     -6.50803929747    1.48054676798   -1.27209143018    4.00000000000
      6.50803929747    1.48054676798   -1.27209143018    4.00000000000
      6.50803929747   -1.48054676798   -1.27209143018    4.00000000000
     -6.50803929747   -1.48054676798   -1.27209143018    4.00000000000
     -6.50803929747    0.00000000000    1.98192821856    4.00000000000
      6.50803929747    0.00000000000    1.98192821856    4.00000000000
     -3.25401964873    2.96109353596    5.23594786729    4.00000000000
      3.25401964873    2.96109353596    5.23594786729    4.00000000000
      3.25401964873   -2.96109353596    5.23594786729    4.00000000000
     -3.25401964873   -2.96109353596    5.23594786729    4.00000000000
      0.00000000000    4.44164030394    5.23594786729    4.00000000000
      0.00000000000   -4.44164030394    5.23594786729    4.00000000000
     -3.25401964873    5.92218707193   -1.27209143018    4.00000000000
      3.25401964873    5.92218707193   -1.27209143018    4.00000000000
      3.25401964873   -5.92218707193   -1.27209143018    4.00000000000
     -3.25401964873   -5.92218707193   -1.27209143018    4.00000000000
     -6.50803929747    0.00000000000   -2.54418286035   -2.00000000000
      6.50803929747    0.00000000000   -2.54418286035   -2.00000000000
     -4.52611107891    1.48054676798    5.23594786729   -2.00000000000
      4.52611107891    1.48054676798    5.23594786729   -2.00000000000
      4.52611107891   -1.48054676798    5.23594786729   -2.00000000000
     -4.52611107891   -1.48054676798    5.23594786729   -2.00000000000
     -5.23594786729    1.48054676798   -4.52611107891   -2.00000000000
      5.23594786729    1.48054676798   -4.52611107891   -2.00000000000
      5.23594786729   -1.48054676798   -4.52611107891   -2.00000000000
     -5.23594786729   -1.48054676798   -4.52611107891   -2.00000000000
     -0.00000000000    5.92218707193    3.96385643712   -2.00000000000
     -0.00000000000   -5.92218707193    3.96385643712   -2.00000000000
     -3.25401964873    4.44164030394   -4.52611107891    4.00000000000
      3.25401964873    4.44164030394   -4.52611107891    4.00000000000
      3.25401964873   -4.44164030394   -4.52611107891    4.00000000000
     -3.25401964873   -4.44164030394   -4.52611107891    4.00000000000
     -1.98192821856    4.44164030394    5.23594786729   -2.00000000000
      1.98192821856    4.44164030394    5.23594786729   -2.00000000000
      1.98192821856   -4.44164030394    5.23594786729   -2.00000000000
     -1.98192821856   -4.44164030394    5.23594786729   -2.00000000000
     -5.23594786729    4.44164030394    1.98192821856   -2.00000000000
      5.23594786729    4.44164030394    1.98192821856   -2.00000000000
      5.23594786729   -4.44164030394    1.98192821856   -2.00000000000
     -5.23594786729   -4.44164030394    1.98192821856   -2.00000000000
      0.00000000000    2.96109353596    6.50803929747   -2.00000000000
      0.00000000000   -2.96109353596    6.50803929747   -2.00000000000
     -6.50803929747    2.96109353596    0.00000000000   -2.00000000000
      6.50803929747    2.96109353596    0.00000000000   -2.00000000000
      6.50803929747   -2.96109353596    0.00000000000   -2.00000000000
     -6.50803929747   -2.96109353596    0.00000000000   -2.00000000000
      0.00000000000    2.96109353596   -6.50803929747   -2.00000000000
      0.00000000000   -2.96109353596   -6.50803929747   -2.00000000000
     -3.25401964873    2.96109353596   -5.79820250908   -2.00000000000
      3.25401964873    2.96109353596   -5.79820250908   -2.00000000000
      3.25401964873   -2.96109353596   -5.79820250908   -2.00000000000
     -3.25401964873   -2.96109353596   -5.79820250908   -2.00000000000
     -6.50803929747    2.96109353596    1.98192821856    4.00000000000
      6.50803929747    2.96109353596    1.98192821856    4.00000000000
      6.50803929747   -2.96109353596    1.98192821856    4.00000000000
     -6.50803929747   -2.96109353596    1.98192821856    4.00000000000
      0.00000000000    5.92218707193   -4.52611107891    4.00000000000
      0.00000000000   -5.92218707193   -4.52611107891    4.00000000000
     -3.25401964873    5.92218707193    3.25401964873   -2.00000000000
      3.25401964873    5.92218707193    3.25401964873   -2.00000000000
      3.25401964873   -5.92218707193    3.25401964873   -2.00000000000
     -3.25401964873   -5.92218707193    3.25401964873   -2.00000000000
     -3.25401964873    5.92218707193   -3.25401964873   -2.00000000000
      3.25401964873    5.92218707193   -3.25401964873   -2.00000000000
      3.25401964873   -5.92218707193   -3.25401964873   -2.00000000000
     -3.25401964873   -5.92218707193   -3.25401964873   -2.00000000000
      0.00000000000    7.40273383991   -1.27209143018    4.00000000000
      0.00000000000   -7.40273383991   -1.27209143018    4.00000000000
     -6.50803929747    2.96109353596   -2.54418286035   -2.00000000000
      6.50803929747    2.96109353596   -2.54418286035   -2.00000000000
      6.50803929747   -2.96109353596   -2.54418286035   -2.00000000000
     -6.50803929747   -2.96109353596   -2.54418286035   -2.00000000000
     -6.50803929747    0.00000000000    3.96385643712   -2.00000000000
      6.50803929747    0.00000000000    3.96385643712   -2.00000000000
     -1.27209143018    7.40273383991    1.98192821856   -2.00000000000
      1.27209143018    7.40273383991    1.98192821856   -2.00000000000
      1.27209143018   -7.40273383991    1.98192821856   -2.00000000000
     -1.27209143018   -7.40273383991    1.98192821856   -2.00000000000
     -1.98192821856    7.40273383991   -1.27209143018   -2.00000000000
      1.98192821856    7.40273383991   -1.27209143018   -2.00000000000
      1.98192821856   -7.40273383991   -1.27209143018   -2.00000000000
     -1.98192821856   -7.40273383991   -1.27209143018   -2.00000000000
     -3.25401964873    0.00000000000    7.21787608585   -2.00000000000
      3.25401964873    0.00000000000    7.21787608585   -2.00000000000
      0.00000000000    1.48054676798   -7.78013072764    4.00000000000
      0.00000000000   -1.48054676798   -7.78013072764    4.00000000000
     -6.50803929747    0.00000000000   -4.52611107891    4.00000000000
      6.50803929747    0.00000000000   -4.52611107891    4.00000000000
     -6.50803929747    4.44164030394   -1.27209143018    4.00000000000
      6.50803929747    4.44164030394   -1.27209143018    4.00000000000
      6.50803929747   -4.44164030394   -1.27209143018    4.00000000000
     -6.50803929747   -4.44164030394   -1.27209143018    4.00000000000
     -7.78013072764    1.48054676798    1.98192821856   -2.00000000000
      7.78013072764    1.48054676798    1.98192821856   -2.00000000000
      7.78013072764   -1.48054676798    1.98192821856   -2.00000000000
     -7.78013072764   -1.48054676798    1.98192821856   -2.00000000000
     -1.98192821856    1.48054676798   -7.78013072764   -2.00000000000
      1.98192821856    1.48054676798   -7.78013072764   -2.00000000000
      1.98192821856   -1.48054676798   -7.78013072764   -2.00000000000
     -1.98192821856   -1.48054676798   -7.78013072764   -2.00000000000
     -6.50803929747    2.96109353596    3.96385643712   -2.00000000000
      6.50803929747    2.96109353596    3.96385643712   -2.00000000000
      6.50803929747   -2.96109353596    3.96385643712   -2.00000000000
     -6.50803929747   -2.96109353596    3.96385643712   -2.00000000000
     -4.52611107891    4.44164030394    5.23594786729   -2.00000000000
      4.52611107891    4.44164030394    5.23594786729   -2.00000000000
      4.52611107891   -4.44164030394    5.23594786729   -2.00000000000
     -4.52611107891   -4.44164030394    5.23594786729   -2.00000000000
     -5.23594786729    4.44164030394   -4.52611107891   -2.00000000000
      5.23594786729    4.44164030394   -4.52611107891   -2.00000000000
      5.23594786729   -4.44164030394   -4.52611107891   -2.00000000000
     -5.23594786729   -4.44164030394   -4.52611107891   -2.00000000000
     -3.25401964873    7.40273383991    1.98192821856    4.00000000000
      3.25401964873    7.40273383991    1.98192821856    4.00000000000
      3.25401964873   -7.40273383991    1.98192821856    4.00000000000
     -3.25401964873   -7.40273383991    1.98192821856    4.00000000000
     -3.25401964873    0.00000000000   -7.78013072764    4.00000000000
      3.25401964873    0.00000000000   -7.78013072764    4.00000000000
     -3.25401964873    2.96109353596    7.21787608585   -2.00000000000
      3.25401964873    2.96109353596    7.21787608585   -2.00000000000
      3.25401964873   -2.96109353596    7.21787608585   -2.00000000000
     -3.25401964873   -2.96109353596    7.21787608585   -2.00000000000
     -6.50803929747    2.96109353596   -4.52611107891    4.00000000000
      6.50803929747    2.96109353596   -4.52611107891    4.00000000000
      6.50803929747   -2.96109353596   -4.52611107891    4.00000000000
     -6.50803929747   -2.96109353596   -4.52611107891    4.00000000000
     -6.50803929747    1.48054676798    5.23594786729    4.00000000000
      6.50803929747    1.48054676798    5.23594786729    4.00000000000
      6.50803929747   -1.48054676798    5.23594786729    4.00000000000
     -6.50803929747   -1.48054676798    5.23594786729    4.00000000000
      0.00000000000    0.00000000000    8.48996751602    4.00000000000
     -3.25401964873    5.92218707193    5.23594786729    4.00000000000
      3.25401964873    5.92218707193    5.23594786729    4.00000000000
      3.25401964873   -5.92218707193    5.23594786729    4.00000000000
     -3.25401964873   -5.92218707193    5.23594786729    4.00000000000
     -1.27209143018    1.48054676798    8.48996751602   -2.00000000000
      1.27209143018    1.48054676798    8.48996751602   -2.00000000000
      1.27209143018   -1.48054676798    8.48996751602   -2.00000000000
     -1.27209143018   -1.48054676798    8.48996751602   -2.00000000000
     -8.48996751602    1.48054676798   -1.27209143018   -2.00000000000
      8.48996751602    1.48054676798   -1.27209143018   -2.00000000000
      8.48996751602   -1.48054676798   -1.27209143018   -2.00000000000
     -8.48996751602   -1.48054676798   -1.27209143018   -2.00000000000
     -4.52611107891    7.40273383991   -1.27209143018   -2.00000000000
      4.52611107891    7.40273383991   -1.27209143018   -2.00000000000
      4.52611107891   -7.40273383991   -1.27209143018   -2.00000000000
     -4.52611107891   -7.40273383991   -1.27209143018   -2.00000000000
     -1.27209143018    7.40273383991   -4.52611107891   -2.00000000000
      1.27209143018    7.40273383991   -4.52611107891   -2.00000000000
      1.27209143018   -7.40273383991   -4.52611107891   -2.00000000000
     -1.27209143018   -7.40273383991   -4.52611107891   -2.00000000000
      0.00000000000    5.92218707193    6.50803929747   -2.00000000000
      0.00000000000   -5.92218707193    6.50803929747   -2.00000000000
     -6.50803929747    5.92218707193    0.00000000000   -2.00000000000
      6.50803929747    5.92218707193    0.00000000000   -2.00000000000
      6.50803929747   -5.92218707193    0.00000000000   -2.00000000000
     -6.50803929747   -5.92218707193    0.00000000000   -2.00000000000
      0.00000000000    5.92218707193   -6.50803929747   -2.00000000000
      0.00000000000   -5.92218707193   -6.50803929747   -2.00000000000
      0.00000000000    8.88328060789    0.00000000000   -2.00000000000
      0.00000000000   -8.88328060789    0.00000000000   -2.00000000000
     -3.25401964873    5.92218707193   -5.79820250908   -2.00000000000
      3.25401964873    5.92218707193   -5.79820250908   -2.00000000000
      3.25401964873   -5.92218707193   -5.79820250908   -2.00000000000
     -3.25401964873   -5.92218707193   -5.79820250908   -2.00000000000
     -3.25401964873    2.96109353596   -7.78013072764    4.00000000000
      3.25401964873    2.96109353596   -7.78013072764    4.00000000000
      3.25401964873   -2.96109353596   -7.78013072764    4.00000000000
     -3.25401964873   -2.96109353596   -7.78013072764    4.00000000000
      0.00000000000    4.44164030394   -7.78013072764    4.00000000000
      0.00000000000   -4.44164030394   -7.78013072764    4.00000000000
      0.00000000000    2.96109353596    8.48996751602    4.00000000000
      0.00000000000   -2.96109353596    8.48996751602    4.00000000000
     -6.50803929747    5.92218707193    1.98192821856    4.00000000000
      6.50803929747    5.92218707193    1.98192821856    4.00000000000
      6.50803929747   -5.92218707193    1.98192821856    4.00000000000
     -6.50803929747   -5.92218707193    1.98192821856    4.00000000000
     -0.00000000000    0.00000000000   -9.05222215782   -2.00000000000
      0.00000000000    7.40273383991    5.23594786729    4.00000000000
      0.00000000000   -7.40273383991    5.23594786729    4.00000000000
      0.00000000000    8.88328060789    1.98192821856    4.00000000000
      0.00000000000   -8.88328060789    1.98192821856    4.00000000000
     -7.78013072764    1.48054676798   -4.52611107891   -2.00000000000
      7.78013072764    1.48054676798   -4.52611107891   -2.00000000000
      7.78013072764   -1.48054676798   -4.52611107891   -2.00000000000
     -7.78013072764   -1.48054676798   -4.52611107891   -2.00000000000
     -4.52611107891    1.48054676798   -7.78013072764   -2.00000000000
      4.52611107891    1.48054676798   -7.78013072764   -2.00000000000
      4.52611107891   -1.48054676798   -7.78013072764   -2.00000000000
     -4.52611107891   -1.48054676798   -7.78013072764   -2.00000000000
     -6.50803929747    5.92218707193   -2.54418286035   -2.00000000000
      6.50803929747    5.92218707193   -2.54418286035   -2.00000000000
      6.50803929747   -5.92218707193   -2.54418286035   -2.00000000000
     -6.50803929747   -5.92218707193   -2.54418286035   -2.00000000000
     -7.78013072764    4.44164030394    1.98192821856   -2.00000000000
      7.78013072764    4.44164030394    1.98192821856   -2.00000000000
      7.78013072764   -4.44164030394    1.98192821856   -2.00000000000
     -7.78013072764   -4.44164030394    1.98192821856   -2.00000000000
     -1.98192821856    4.44164030394   -7.78013072764   -2.00000000000
      1.98192821856    4.44164030394   -7.78013072764   -2.00000000000
      1.98192821856   -4.44164030394   -7.78013072764   -2.00000000000
     -1.98192821856   -4.44164030394   -7.78013072764   -2.00000000000
     -6.50803929747    0.00000000000    6.50803929747   -2.00000000000
      6.50803929747    0.00000000000    6.50803929747   -2.00000000000
     -6.50803929747    0.00000000000   -6.50803929747   -2.00000000000
      6.50803929747    0.00000000000   -6.50803929747   -2.00000000000
     -3.25401964873    1.48054676798    8.48996751602    4.00000000000
      3.25401964873    1.48054676798    8.48996751602    4.00000000000
      3.25401964873   -1.48054676798    8.48996751602    4.00000000000
     -3.25401964873   -1.48054676798    8.48996751602    4.00000000000
     -0.00000000000    8.88328060789   -2.54418286035   -2.00000000000
     -0.00000000000   -8.88328060789   -2.54418286035   -2.00000000000
     -3.25401964873    7.40273383991   -4.52611107891    4.00000000000
      3.25401964873    7.40273383991   -4.52611107891    4.00000000000
      3.25401964873   -7.40273383991   -4.52611107891    4.00000000000
     -3.25401964873   -7.40273383991   -4.52611107891    4.00000000000
     -1.98192821856    7.40273383991    5.23594786729   -2.00000000000
      1.98192821856    7.40273383991    5.23594786729   -2.00000000000
      1.98192821856   -7.40273383991    5.23594786729   -2.00000000000
     -1.98192821856   -7.40273383991    5.23594786729   -2.00000000000
     -5.23594786729    7.40273383991    1.98192821856   -2.00000000000
      5.23594786729    7.40273383991    1.98192821856   -2.00000000000
      5.23594786729   -7.40273383991    1.98192821856   -2.00000000000
     -5.23594786729   -7.40273383991    1.98192821856   -2.00000000000
     -6.50803929747    4.44164030394    5.23594786729    4.00000000000
      6.50803929747    4.44164030394    5.23594786729    4.00000000000
      6.50803929747   -4.44164030394    5.23594786729    4.00000000000
     -6.50803929747   -4.44164030394    5.23594786729    4.00000000000
     -3.25401964873    8.88328060789    0.70983678838   -2.00000000000
      3.25401964873    8.88328060789    0.70983678838   -2.00000000000
      3.25401964873   -8.88328060789    0.70983678838   -2.00000000000
     -3.25401964873   -8.88328060789    0.70983678838   -2.00000000000
     -0.00000000000    2.96109353596   -9.05222215782   -2.00000000000
     -0.00000000000   -2.96109353596   -9.05222215782   -2.00000000000
     -3.25401964873    8.88328060789   -1.27209143018    4.00000000000
      3.25401964873    8.88328060789   -1.27209143018    4.00000000000
      3.25401964873   -8.88328060789   -1.27209143018    4.00000000000
     -3.25401964873   -8.88328060789   -1.27209143018    4.00000000000
     -6.50803929747    5.92218707193    3.96385643712   -2.00000000000
      6.50803929747    5.92218707193    3.96385643712   -2.00000000000
      6.50803929747   -5.92218707193    3.96385643712   -2.00000000000
     -6.50803929747   -5.92218707193    3.96385643712   -2.00000000000
     -1.27209143018    4.44164030394    8.48996751602   -2.00000000000
      1.27209143018    4.44164030394    8.48996751602   -2.00000000000
      1.27209143018   -4.44164030394    8.48996751602   -2.00000000000
     -1.27209143018   -4.44164030394    8.48996751602   -2.00000000000
     -8.48996751602    4.44164030394   -1.27209143018   -2.00000000000
      8.48996751602    4.44164030394   -1.27209143018   -2.00000000000
      8.48996751602   -4.44164030394   -1.27209143018   -2.00000000000
     -8.48996751602   -4.44164030394   -1.27209143018   -2.00000000000
     -6.50803929747    2.96109353596    6.50803929747   -2.00000000000
      6.50803929747    2.96109353596    6.50803929747   -2.00000000000
      6.50803929747   -2.96109353596    6.50803929747   -2.00000000000
     -6.50803929747   -2.96109353596    6.50803929747   -2.00000000000
     -6.50803929747    2.96109353596   -6.50803929747   -2.00000000000
      6.50803929747    2.96109353596   -6.50803929747   -2.00000000000
      6.50803929747   -2.96109353596   -6.50803929747   -2.00000000000
     -6.50803929747   -2.96109353596   -6.50803929747   -2.00000000000
     -0.00000000000    8.88328060789    3.96385643712   -2.00000000000
     -0.00000000000   -8.88328060789    3.96385643712   -2.00000000000
     -9.76205894620    0.00000000000    0.70983678838   -2.00000000000
      9.76205894620    0.00000000000    0.70983678838   -2.00000000000
     -9.76205894620    0.00000000000   -1.27209143018    4.00000000000
      9.76205894620    0.00000000000   -1.27209143018    4.00000000000
     -3.25401964873    5.92218707193    7.21787608585   -2.00000000000
      3.25401964873    5.92218707193    7.21787608585   -2.00000000000
      3.25401964873   -5.92218707193    7.21787608585   -2.00000000000
     -3.25401964873   -5.92218707193    7.21787608585   -2.00000000000
     -6.50803929747    5.92218707193   -4.52611107891    4.00000000000
      6.50803929747    5.92218707193   -4.52611107891    4.00000000000
      6.50803929747   -5.92218707193   -4.52611107891    4.00000000000
     -6.50803929747   -5.92218707193   -4.52611107891    4.00000000000
     -6.50803929747    7.40273383991   -1.27209143018    4.00000000000
      6.50803929747    7.40273383991   -1.27209143018    4.00000000000
      6.50803929747   -7.40273383991   -1.27209143018    4.00000000000
     -6.50803929747   -7.40273383991   -1.27209143018    4.00000000000
      0.00000000000    8.88328060789   -4.52611107891    4.00000000000
      0.00000000000   -8.88328060789   -4.52611107891    4.00000000000
     -3.25401964873    8.88328060789    3.25401964873   -2.00000000000
      3.25401964873    8.88328060789    3.25401964873   -2.00000000000
      3.25401964873   -8.88328060789    3.25401964873   -2.00000000000
     -3.25401964873   -8.88328060789    3.25401964873   -2.00000000000
     -3.25401964873    8.88328060789   -3.25401964873   -2.00000000000
      3.25401964873    8.88328060789   -3.25401964873   -2.00000000000
      3.25401964873   -8.88328060789   -3.25401964873   -2.00000000000
     -3.25401964873   -8.88328060789   -3.25401964873   -2.00000000000
     -7.78013072764    4.44164030394   -4.52611107891   -2.00000000000
      7.78013072764    4.44164030394   -4.52611107891   -2.00000000000
      7.78013072764   -4.44164030394   -4.52611107891   -2.00000000000
     -7.78013072764   -4.44164030394   -4.52611107891   -2.00000000000
     -4.52611107891    4.44164030394   -7.78013072764   -2.00000000000
      4.52611107891    4.44164030394   -7.78013072764   -2.00000000000
      4.52611107891   -4.44164030394   -7.78013072764   -2.00000000000
     -4.52611107891   -4.44164030394   -7.78013072764   -2.00000000000
     -9.76205894620    1.48054676798    1.98192821856    4.00000000000
      9.76205894620    1.48054676798    1.98192821856    4.00000000000
      9.76205894620   -1.48054676798    1.98192821856    4.00000000000
     -9.76205894620   -1.48054676798    1.98192821856    4.00000000000
     -3.25401964873    4.44164030394    8.48996751602    4.00000000000
      3.25401964873    4.44164030394    8.48996751602    4.00000000000
      3.25401964873   -4.44164030394    8.48996751602    4.00000000000
     -3.25401964873   -4.44164030394    8.48996751602    4.00000000000
     -4.52611107891    7.40273383991    5.23594786729   -2.00000000000
      4.52611107891    7.40273383991    5.23594786729   -2.00000000000
      4.52611107891   -7.40273383991    5.23594786729   -2.00000000000
     -4.52611107891   -7.40273383991    5.23594786729   -2.00000000000
     -5.23594786729    7.40273383991   -4.52611107891   -2.00000000000
      5.23594786729    7.40273383991   -4.52611107891   -2.00000000000
      5.23594786729   -7.40273383991   -4.52611107891   -2.00000000000
     -5.23594786729   -7.40273383991   -4.52611107891   -2.00000000000
     -9.76205894620    2.96109353596    0.70983678838   -2.00000000000
      9.76205894620    2.96109353596    0.70983678838   -2.00000000000
      9.76205894620   -2.96109353596    0.70983678838   -2.00000000000
     -9.76205894620   -2.96109353596    0.70983678838   -2.00000000000
     -6.50803929747    1.48054676798   -7.78013072764    4.00000000000
      6.50803929747    1.48054676798   -7.78013072764    4.00000000000
      6.50803929747   -1.48054676798   -7.78013072764    4.00000000000
     -6.50803929747   -1.48054676798   -7.78013072764    4.00000000000
     -9.76205894620    2.96109353596   -1.27209143018    4.00000000000
      9.76205894620    2.96109353596   -1.27209143018    4.00000000000
      9.76205894620   -2.96109353596   -1.27209143018    4.00000000000
     -9.76205894620   -2.96109353596   -1.27209143018    4.00000000000
     -3.25401964873    0.00000000000    9.76205894620   -2.00000000000
      3.25401964873    0.00000000000    9.76205894620   -2.00000000000
     -9.76205894620    0.00000000000    3.25401964873   -2.00000000000
      9.76205894620    0.00000000000    3.25401964873   -2.00000000000
     -9.76205894620    0.00000000000   -3.25401964873   -2.00000000000
      9.76205894620    0.00000000000   -3.25401964873   -2.00000000000
     -3.25401964873    0.00000000000   -9.76205894620   -2.00000000000
      3.25401964873    0.00000000000   -9.76205894620   -2.00000000000
     -3.25401964873    5.92218707193   -7.78013072764    4.00000000000
      3.25401964873    5.92218707193   -7.78013072764    4.00000000000
      3.25401964873   -5.92218707193   -7.78013072764    4.00000000000
     -3.25401964873   -5.92218707193   -7.78013072764    4.00000000000
      0.00000000000    5.92218707193    8.48996751602    4.00000000000
      0.00000000000   -5.92218707193    8.48996751602    4.00000000000
      0.00000000000   10.36382737587   -1.27209143018    4.00000000000
      0.00000000000  -10.36382737587   -1.27209143018    4.00000000000
     -0.00000000000    0.00000000000   10.47189573458   -2.00000000000
     -1.27209143018   10.36382737587    1.98192821856   -2.00000000000
      1.27209143018   10.36382737587    1.98192821856   -2.00000000000
      1.27209143018  -10.36382737587    1.98192821856   -2.00000000000
     -1.27209143018  -10.36382737587    1.98192821856   -2.00000000000
     -1.98192821856   10.36382737587   -1.27209143018   -2.00000000000
      1.98192821856   10.36382737587   -1.27209143018   -2.00000000000
      1.98192821856  -10.36382737587   -1.27209143018   -2.00000000000
     -1.98192821856  -10.36382737587   -1.27209143018   -2.00000000000
     -3.25401964873    2.96109353596    9.76205894620   -2.00000000000
      3.25401964873    2.96109353596    9.76205894620   -2.00000000000
      3.25401964873   -2.96109353596    9.76205894620   -2.00000000000
     -3.25401964873   -2.96109353596    9.76205894620   -2.00000000000
     -9.76205894620    2.96109353596   -3.25401964873   -2.00000000000
      9.76205894620    2.96109353596   -3.25401964873   -2.00000000000
      9.76205894620   -2.96109353596   -3.25401964873   -2.00000000000
     -9.76205894620   -2.96109353596   -3.25401964873   -2.00000000000
      0.00000000000    7.40273383991   -7.78013072764    4.00000000000
      0.00000000000   -7.40273383991   -7.78013072764    4.00000000000
     -3.25401964873    8.88328060789    5.23594786729    4.00000000000
      3.25401964873    8.88328060789    5.23594786729    4.00000000000
      3.25401964873   -8.88328060789    5.23594786729    4.00000000000
     -3.25401964873   -8.88328060789    5.23594786729    4.00000000000
     -9.76205894620    1.48054676798   -4.52611107891    4.00000000000
      9.76205894620    1.48054676798   -4.52611107891    4.00000000000
      9.76205894620   -1.48054676798   -4.52611107891    4.00000000000
     -9.76205894620   -1.48054676798   -4.52611107891    4.00000000000
     -0.00000000000    2.96109353596   10.47189573458   -2.00000000000
     -0.00000000000   -2.96109353596   10.47189573458   -2.00000000000
     -9.76205894620    4.44164030394    1.98192821856    4.00000000000
      9.76205894620    4.44164030394    1.98192821856    4.00000000000
      9.76205894620   -4.44164030394    1.98192821856    4.00000000000
     -9.76205894620   -4.44164030394    1.98192821856    4.00000000000
      0.00000000000    8.88328060789    6.50803929747   -2.00000000000
      0.00000000000   -8.88328060789    6.50803929747   -2.00000000000
     -3.25401964873   10.36382737587    1.98192821856    4.00000000000
      3.25401964873   10.36382737587    1.98192821856    4.00000000000
      3.25401964873  -10.36382737587    1.98192821856    4.00000000000
     -3.25401964873  -10.36382737587    1.98192821856    4.00000000000
     -6.50803929747    0.00000000000   -9.05222215782   -2.00000000000
      6.50803929747    0.00000000000   -9.05222215782   -2.00000000000
     -6.50803929747    7.40273383991    5.23594786729    4.00000000000
      6.50803929747    7.40273383991    5.23594786729    4.00000000000
      6.50803929747   -7.40273383991    5.23594786729    4.00000000000
     -6.50803929747   -7.40273383991    5.23594786729    4.00000000000
     -6.50803929747    8.88328060789    1.98192821856    4.00000000000
      6.50803929747    8.88328060789    1.98192821856    4.00000000000
      6.50803929747   -8.88328060789    1.98192821856    4.00000000000
     -6.50803929747   -8.88328060789    1.98192821856    4.00000000000
    -11.03415037637    1.48054676798   -1.27209143018   -2.00000000000
     11.03415037637    1.48054676798   -1.27209143018   -2.00000000000
     11.03415037637   -1.48054676798   -1.27209143018   -2.00000000000
    -11.03415037637   -1.48054676798   -1.27209143018   -2.00000000000
     -1.27209143018    7.40273383991    8.48996751602   -2.00000000000
      1.27209143018    7.40273383991    8.48996751602   -2.00000000000
      1.27209143018   -7.40273383991    8.48996751602   -2.00000000000
     -1.27209143018   -7.40273383991    8.48996751602   -2.00000000000
     -9.76205894620    0.00000000000   -5.79820250908   -2.00000000000
      9.76205894620    0.00000000000   -5.79820250908   -2.00000000000
     -9.76205894620    5.92218707193   -1.27209143018    4.00000000000
      9.76205894620    5.92218707193   -1.27209143018    4.00000000000
      9.76205894620   -5.92218707193   -1.27209143018    4.00000000000
     -9.76205894620   -5.92218707193   -1.27209143018    4.00000000000
      0.00000000000   10.36382737587    5.23594786729    4.00000000000
      0.00000000000  -10.36382737587    5.23594786729    4.00000000000
     -9.76205894620    4.44164030394   -4.52611107891    4.00000000000
      9.76205894620    4.44164030394   -4.52611107891    4.00000000000
      9.76205894620   -4.44164030394   -4.52611107891    4.00000000000
     -9.76205894620   -4.44164030394   -4.52611107891    4.00000000000
     -1.98192821856   10.36382737587    5.23594786729   -2.00000000000
      1.98192821856   10.36382737587    5.23594786729   -2.00000000000
      1.98192821856  -10.36382737587    5.23594786729   -2.00000000000
     -1.98192821856  -10.36382737587    5.23594786729   -2.00000000000
     -5.23594786729    1.48054676798    8.48996751602   -2.00000000000
      5.23594786729    1.48054676798    8.48996751602   -2.00000000000
      5.23594786729   -1.48054676798    8.48996751602   -2.00000000000
     -5.23594786729   -1.48054676798    8.48996751602   -2.00000000000
     -8.48996751602    1.48054676798    5.23594786729   -2.00000000000
      8.48996751602    1.48054676798    5.23594786729   -2.00000000000
      8.48996751602   -1.48054676798    5.23594786729   -2.00000000000
     -8.48996751602   -1.48054676798    5.23594786729   -2.00000000000
     -6.50803929747    0.00000000000    8.48996751602    4.00000000000
      6.50803929747    0.00000000000    8.48996751602    4.00000000000
     -9.76205894620    2.96109353596    3.25401964873   -2.00000000000
      9.76205894620    2.96109353596    3.25401964873   -2.00000000000
      9.76205894620   -2.96109353596    3.25401964873   -2.00000000000
     -9.76205894620   -2.96109353596    3.25401964873   -2.00000000000
     -3.25401964873    2.96109353596   -9.76205894620   -2.00000000000
      3.25401964873    2.96109353596   -9.76205894620   -2.00000000000
      3.25401964873   -2.96109353596   -9.76205894620   -2.00000000000
     -3.25401964873   -2.96109353596   -9.76205894620   -2.00000000000
     -0.00000000000    5.92218707193   -9.05222215782   -2.00000000000
     -0.00000000000   -5.92218707193   -9.05222215782   -2.00000000000
     -5.23594786729    4.44164030394    8.48996751602   -2.00000000000
      5.23594786729    4.44164030394    8.48996751602   -2.00000000000
      5.23594786729   -4.44164030394    8.48996751602   -2.00000000000
     -5.23594786729   -4.44164030394    8.48996751602   -2.00000000000
     -8.48996751602    4.44164030394    5.23594786729   -2.00000000000
      8.48996751602    4.44164030394    5.23594786729   -2.00000000000
      8.48996751602   -4.44164030394    5.23594786729   -2.00000000000
     -8.48996751602   -4.44164030394    5.23594786729   -2.00000000000
     -7.78013072764    7.40273383991    1.98192821856   -2.00000000000
      7.78013072764    7.40273383991    1.98192821856   -2.00000000000
      7.78013072764   -7.40273383991    1.98192821856   -2.00000000000
     -7.78013072764   -7.40273383991    1.98192821856   -2.00000000000
     -1.98192821856    7.40273383991   -7.78013072764   -2.00000000000
      1.98192821856    7.40273383991   -7.78013072764   -2.00000000000
      1.98192821856   -7.40273383991   -7.78013072764   -2.00000000000
     -1.98192821856   -7.40273383991   -7.78013072764   -2.00000000000
     -6.50803929747    5.92218707193    6.50803929747   -2.00000000000
      6.50803929747    5.92218707193    6.50803929747   -2.00000000000
      6.50803929747   -5.92218707193    6.50803929747   -2.00000000000
     -6.50803929747   -5.92218707193    6.50803929747   -2.00000000000
     -6.50803929747    5.92218707193   -6.50803929747   -2.00000000000
      6.50803929747    5.92218707193   -6.50803929747   -2.00000000000
      6.50803929747   -5.92218707193   -6.50803929747   -2.00000000000
     -6.50803929747   -5.92218707193   -6.50803929747   -2.00000000000
     -6.50803929747    8.88328060789    0.00000000000   -2.00000000000
      6.50803929747    8.88328060789    0.00000000000   -2.00000000000
      6.50803929747   -8.88328060789    0.00000000000   -2.00000000000
     -6.50803929747   -8.88328060789    0.00000000000   -2.00000000000
      0.00000000000    8.88328060789   -6.50803929747   -2.00000000000
      0.00000000000   -8.88328060789   -6.50803929747   -2.00000000000
      0.00000000000    0.00000000000  -11.03415037637    4.00000000000
     -6.50803929747    4.44164030394   -7.78013072764    4.00000000000
      6.50803929747    4.44164030394   -7.78013072764    4.00000000000
      6.50803929747   -4.44164030394   -7.78013072764    4.00000000000
     -6.50803929747   -4.44164030394   -7.78013072764    4.00000000000
     -9.76205894620    0.00000000000    5.23594786729    4.00000000000
      9.76205894620    0.00000000000    5.23594786729    4.00000000000
     -3.25401964873    8.88328060789   -5.79820250908   -2.00000000000
      3.25401964873    8.88328060789   -5.79820250908   -2.00000000000
      3.25401964873   -8.88328060789   -5.79820250908   -2.00000000000
     -3.25401964873   -8.88328060789   -5.79820250908   -2.00000000000
     -6.50803929747    2.96109353596    8.48996751602    4.00000000000
      6.50803929747    2.96109353596    8.48996751602    4.00000000000
      6.50803929747   -2.96109353596    8.48996751602    4.00000000000
     -6.50803929747   -2.96109353596    8.48996751602    4.00000000000
     -1.27209143018    1.48054676798  -11.03415037637   -2.00000000000
      1.27209143018    1.48054676798  -11.03415037637   -2.00000000000
      1.27209143018   -1.48054676798  -11.03415037637   -2.00000000000
     -1.27209143018   -1.48054676798  -11.03415037637   -2.00000000000
     -6.50803929747    8.88328060789   -2.54418286035   -2.00000000000
      6.50803929747    8.88328060789   -2.54418286035   -2.00000000000
      6.50803929747   -8.88328060789   -2.54418286035   -2.00000000000
     -6.50803929747   -8.88328060789   -2.54418286035   -2.00000000000
     -8.48996751602    7.40273383991   -1.27209143018   -2.00000000000
      8.48996751602    7.40273383991   -1.27209143018   -2.00000000000
      8.48996751602   -7.40273383991   -1.27209143018   -2.00000000000
     -8.48996751602   -7.40273383991   -1.27209143018   -2.00000000000
     -4.52611107891   10.36382737587   -1.27209143018   -2.00000000000
      4.52611107891   10.36382737587   -1.27209143018   -2.00000000000
      4.52611107891  -10.36382737587   -1.27209143018   -2.00000000000
     -4.52611107891  -10.36382737587   -1.27209143018   -2.00000000000
     -1.27209143018   10.36382737587   -4.52611107891   -2.00000000000
      1.27209143018   10.36382737587   -4.52611107891   -2.00000000000
      1.27209143018  -10.36382737587   -4.52611107891   -2.00000000000
     -1.27209143018  -10.36382737587   -4.52611107891   -2.00000000000
      0.00000000000    2.96109353596  -11.03415037637    4.00000000000
      0.00000000000   -2.96109353596  -11.03415037637    4.00000000000
     -9.76205894620    5.92218707193    0.70983678838   -2.00000000000
      9.76205894620    5.92218707193    0.70983678838   -2.00000000000
      9.76205894620   -5.92218707193    0.70983678838   -2.00000000000
     -9.76205894620   -5.92218707193    0.70983678838   -2.00000000000
     -9.76205894620    2.96109353596    5.23594786729    4.00000000000
      9.76205894620    2.96109353596    5.23594786729    4.00000000000
      9.76205894620   -2.96109353596    5.23594786729    4.00000000000
     -9.76205894620   -2.96109353596    5.23594786729    4.00000000000
     -6.50803929747    2.96109353596   -9.05222215782   -2.00000000000
      6.50803929747    2.96109353596   -9.05222215782   -2.00000000000
      6.50803929747   -2.96109353596   -9.05222215782   -2.00000000000
     -6.50803929747   -2.96109353596   -9.05222215782   -2.00000000000
     -3.25401964873    1.48054676798  -11.03415037637    4.00000000000
      3.25401964873    1.48054676798  -11.03415037637    4.00000000000
      3.25401964873   -1.48054676798  -11.03415037637    4.00000000000
     -3.25401964873   -1.48054676798  -11.03415037637    4.00000000000
     -7.78013072764    1.48054676798    8.48996751602   -2.00000000000
      7.78013072764    1.48054676798    8.48996751602   -2.00000000000
      7.78013072764   -1.48054676798    8.48996751602   -2.00000000000
     -7.78013072764   -1.48054676798    8.48996751602   -2.00000000000
     -8.48996751602    1.48054676798   -7.78013072764   -2.00000000000
      8.48996751602    1.48054676798   -7.78013072764   -2.00000000000
      8.48996751602   -1.48054676798   -7.78013072764   -2.00000000000
     -8.48996751602   -1.48054676798   -7.78013072764   -2.00000000000
     -7.78013072764    7.40273383991   -4.52611107891   -2.00000000000
      7.78013072764    7.40273383991   -4.52611107891   -2.00000000000
      7.78013072764   -7.40273383991   -4.52611107891   -2.00000000000
     -7.78013072764   -7.40273383991   -4.52611107891   -2.00000000000
     -4.52611107891    7.40273383991   -7.78013072764   -2.00000000000
      4.52611107891    7.40273383991   -7.78013072764   -2.00000000000
      4.52611107891   -7.40273383991   -7.78013072764   -2.00000000000
     -4.52611107891   -7.40273383991   -7.78013072764   -2.00000000000
     -6.50803929747    8.88328060789    3.96385643712   -2.00000000000
      6.50803929747    8.88328060789    3.96385643712   -2.00000000000
      6.50803929747   -8.88328060789    3.96385643712   -2.00000000000
     -6.50803929747   -8.88328060789    3.96385643712   -2.00000000000
     -3.25401964873    7.40273383991    8.48996751602    4.00000000000
      3.25401964873    7.40273383991    8.48996751602    4.00000000000
      3.25401964873   -7.40273383991    8.48996751602    4.00000000000
     -3.25401964873   -7.40273383991    8.48996751602    4.00000000000
     -9.76205894620    2.96109353596   -5.79820250908   -2.00000000000
      9.76205894620    2.96109353596   -5.79820250908   -2.00000000000
      9.76205894620   -2.96109353596   -5.79820250908   -2.00000000000
     -9.76205894620   -2.96109353596   -5.79820250908   -2.00000000000
     -3.25401964873   10.36382737587   -4.52611107891    4.00000000000
      3.25401964873   10.36382737587   -4.52611107891    4.00000000000
      3.25401964873  -10.36382737587   -4.52611107891    4.00000000000
     -3.25401964873  -10.36382737587   -4.52611107891    4.00000000000
     -5.23594786729   10.36382737587    1.98192821856   -2.00000000000
      5.23594786729   10.36382737587    1.98192821856   -2.00000000000
      5.23594786729  -10.36382737587    1.98192821856   -2.00000000000
     -5.23594786729  -10.36382737587    1.98192821856   -2.00000000000
      0.00000000000    1.48054676798   11.74398716476    4.00000000000
      0.00000000000   -1.48054676798   11.74398716476    4.00000000000
      0.00000000000   11.84437414385    0.00000000000   -2.00000000000
      0.00000000000  -11.84437414385    0.00000000000   -2.00000000000
     -3.25401964873    5.92218707193    9.76205894620   -2.00000000000
      3.25401964873    5.92218707193    9.76205894620   -2.00000000000
      3.25401964873   -5.92218707193    9.76205894620   -2.00000000000
     -3.25401964873   -5.92218707193    9.76205894620   -2.00000000000
     -9.76205894620    5.92218707193    3.25401964873   -2.00000000000
      9.76205894620    5.92218707193    3.25401964873   -2.00000000000
      9.76205894620   -5.92218707193    3.25401964873   -2.00000000000
     -9.76205894620   -5.92218707193    3.25401964873   -2.00000000000
     -9.76205894620    5.92218707193   -3.25401964873   -2.00000000000
      9.76205894620    5.92218707193   -3.25401964873   -2.00000000000
      9.76205894620   -5.92218707193   -3.25401964873   -2.00000000000
     -9.76205894620   -5.92218707193   -3.25401964873   -2.00000000000
     -3.25401964873    5.92218707193   -9.76205894620   -2.00000000000
      3.25401964873    5.92218707193   -9.76205894620   -2.00000000000
      3.25401964873   -5.92218707193   -9.76205894620   -2.00000000000
     -3.25401964873   -5.92218707193   -9.76205894620   -2.00000000000
     -3.25401964873    8.88328060789    7.21787608585   -2.00000000000
      3.25401964873    8.88328060789    7.21787608585   -2.00000000000
      3.25401964873   -8.88328060789    7.21787608585   -2.00000000000
     -3.25401964873   -8.88328060789    7.21787608585   -2.00000000000
     -6.50803929747    8.88328060789   -4.52611107891    4.00000000000
      6.50803929747    8.88328060789   -4.52611107891    4.00000000000
      6.50803929747   -8.88328060789   -4.52611107891    4.00000000000
     -6.50803929747   -8.88328060789   -4.52611107891    4.00000000000
    -11.03415037637    4.44164030394   -1.27209143018   -2.00000000000
     11.03415037637    4.44164030394   -1.27209143018   -2.00000000000
     11.03415037637   -4.44164030394   -1.27209143018   -2.00000000000
    -11.03415037637   -4.44164030394   -1.27209143018   -2.00000000000
     -1.27209143018    4.44164030394  -11.03415037637   -2.00000000000
      1.27209143018    4.44164030394  -11.03415037637   -2.00000000000
      1.27209143018   -4.44164030394  -11.03415037637   -2.00000000000
     -1.27209143018   -4.44164030394  -11.03415037637   -2.00000000000
     -1.98192821856    1.48054676798   11.74398716476   -2.00000000000
      1.98192821856    1.48054676798   11.74398716476   -2.00000000000
      1.98192821856   -1.48054676798   11.74398716476   -2.00000000000
     -1.98192821856   -1.48054676798   11.74398716476   -2.00000000000
    -11.74398716476    1.48054676798    1.98192821856   -2.00000000000
     11.74398716476    1.48054676798    1.98192821856   -2.00000000000
     11.74398716476   -1.48054676798    1.98192821856   -2.00000000000
    -11.74398716476   -1.48054676798    1.98192821856   -2.00000000000
      0.00000000000   11.84437414385    1.98192821856    4.00000000000
      0.00000000000  -11.84437414385    1.98192821856    4.00000000000
     -0.00000000000    5.92218707193   10.47189573458   -2.00000000000
     -0.00000000000   -5.92218707193   10.47189573458   -2.00000000000
     -0.00000000000   11.84437414385   -2.54418286035   -2.00000000000
     -0.00000000000  -11.84437414385   -2.54418286035   -2.00000000000
     -9.76205894620    0.00000000000    7.21787608585   -2.00000000000
      9.76205894620    0.00000000000    7.21787608585   -2.00000000000
     -3.25401964873    0.00000000000   11.74398716476    4.00000000000
      3.25401964873    0.00000000000   11.74398716476    4.00000000000
     -6.50803929747    5.92218707193    8.48996751602    4.00000000000
      6.50803929747    5.92218707193    8.48996751602    4.00000000000
      6.50803929747   -5.92218707193    8.48996751602    4.00000000000
     -6.50803929747   -5.92218707193    8.48996751602    4.00000000000
     -3.25401964873    8.88328060789   -7.78013072764    4.00000000000
      3.25401964873    8.88328060789   -7.78013072764    4.00000000000
      3.25401964873   -8.88328060789   -7.78013072764    4.00000000000
     -3.25401964873   -8.88328060789   -7.78013072764    4.00000000000
      0.00000000000    8.88328060789    8.48996751602    4.00000000000
      0.00000000000   -8.88328060789    8.48996751602    4.00000000000
    -11.03415037637    1.48054676798    5.23594786729   -2.00000000000
     11.03415037637    1.48054676798    5.23594786729   -2.00000000000
     11.03415037637   -1.48054676798    5.23594786729   -2.00000000000
    -11.03415037637   -1.48054676798    5.23594786729   -2.00000000000
     -5.23594786729    1.48054676798  -11.03415037637   -2.00000000000
      5.23594786729    1.48054676798  -11.03415037637   -2.00000000000
      5.23594786729   -1.48054676798  -11.03415037637   -2.00000000000
     -5.23594786729   -1.48054676798  -11.03415037637   -2.00000000000
     -3.25401964873   11.84437414385    0.70983678838   -2.00000000000
      3.25401964873   11.84437414385    0.70983678838   -2.00000000000
      3.25401964873  -11.84437414385    0.70983678838   -2.00000000000
     -3.25401964873  -11.84437414385    0.70983678838   -2.00000000000
     -6.50803929747   10.36382737587   -1.27209143018    4.00000000000
      6.50803929747   10.36382737587   -1.27209143018    4.00000000000
      6.50803929747  -10.36382737587   -1.27209143018    4.00000000000
     -6.50803929747  -10.36382737587   -1.27209143018    4.00000000000
     -6.50803929747    0.00000000000   10.47189573458   -2.00000000000
      6.50803929747    0.00000000000   10.47189573458   -2.00000000000
     -3.25401964873    4.44164030394  -11.03415037637    4.00000000000
      3.25401964873    4.44164030394  -11.03415037637    4.00000000000
      3.25401964873   -4.44164030394  -11.03415037637    4.00000000000
     -3.25401964873   -4.44164030394  -11.03415037637    4.00000000000
     -7.78013072764    4.44164030394    8.48996751602   -2.00000000000
      7.78013072764    4.44164030394    8.48996751602   -2.00000000000
      7.78013072764   -4.44164030394    8.48996751602   -2.00000000000
     -7.78013072764   -4.44164030394    8.48996751602   -2.00000000000
     -8.48996751602    4.44164030394   -7.78013072764   -2.00000000000
      8.48996751602    4.44164030394   -7.78013072764   -2.00000000000
      8.48996751602   -4.44164030394   -7.78013072764   -2.00000000000
     -8.48996751602   -4.44164030394   -7.78013072764   -2.00000000000
     -3.25401964873   11.84437414385   -1.27209143018    4.00000000000
      3.25401964873   11.84437414385   -1.27209143018    4.00000000000
      3.25401964873  -11.84437414385   -1.27209143018    4.00000000000
     -3.25401964873  -11.84437414385   -1.27209143018    4.00000000000
     -9.76205894620    7.40273383991    1.98192821856    4.00000000000
      9.76205894620    7.40273383991    1.98192821856    4.00000000000
      9.76205894620   -7.40273383991    1.98192821856    4.00000000000
     -9.76205894620   -7.40273383991    1.98192821856    4.00000000000
     -5.23594786729    7.40273383991    8.48996751602   -2.00000000000
      5.23594786729    7.40273383991    8.48996751602   -2.00000000000
      5.23594786729   -7.40273383991    8.48996751602   -2.00000000000
     -5.23594786729   -7.40273383991    8.48996751602   -2.00000000000
     -8.48996751602    7.40273383991    5.23594786729   -2.00000000000
      8.48996751602    7.40273383991    5.23594786729   -2.00000000000
      8.48996751602   -7.40273383991    5.23594786729   -2.00000000000
     -8.48996751602   -7.40273383991    5.23594786729   -2.00000000000
     -4.52611107891   10.36382737587    5.23594786729   -2.00000000000
      4.52611107891   10.36382737587    5.23594786729   -2.00000000000
      4.52611107891  -10.36382737587    5.23594786729   -2.00000000000
     -4.52611107891  -10.36382737587    5.23594786729   -2.00000000000
     -5.23594786729   10.36382737587   -4.52611107891   -2.00000000000
      5.23594786729   10.36382737587   -4.52611107891   -2.00000000000
      5.23594786729  -10.36382737587   -4.52611107891   -2.00000000000
     -5.23594786729  -10.36382737587   -4.52611107891   -2.00000000000
     -9.76205894620    0.00000000000   -7.78013072764    4.00000000000
      9.76205894620    0.00000000000   -7.78013072764    4.00000000000
     -0.00000000000   11.84437414385    3.96385643712   -2.00000000000
     -0.00000000000  -11.84437414385    3.96385643712   -2.00000000000
     -9.76205894620    2.96109353596    7.21787608585   -2.00000000000
      9.76205894620    2.96109353596    7.21787608585   -2.00000000000
      9.76205894620   -2.96109353596    7.21787608585   -2.00000000000
     -9.76205894620   -2.96109353596    7.21787608585   -2.00000000000
      0.00000000000    5.92218707193  -11.03415037637    4.00000000000
      0.00000000000   -5.92218707193  -11.03415037637    4.00000000000
     -3.25401964873    2.96109353596   11.74398716476    4.00000000000
      3.25401964873    2.96109353596   11.74398716476    4.00000000000
      3.25401964873   -2.96109353596   11.74398716476    4.00000000000
     -3.25401964873   -2.96109353596   11.74398716476    4.00000000000
      0.00000000000    4.44164030394   11.74398716476    4.00000000000
      0.00000000000   -4.44164030394   11.74398716476    4.00000000000
     -6.50803929747    7.40273383991   -7.78013072764    4.00000000000
      6.50803929747    7.40273383991   -7.78013072764    4.00000000000
      6.50803929747   -7.40273383991   -7.78013072764    4.00000000000
     -6.50803929747   -7.40273383991   -7.78013072764    4.00000000000
     -9.76205894620    5.92218707193    5.23594786729    4.00000000000
      9.76205894620    5.92218707193    5.23594786729    4.00000000000
      9.76205894620   -5.92218707193    5.23594786729    4.00000000000
     -9.76205894620   -5.92218707193    5.23594786729    4.00000000000
     -6.50803929747    5.92218707193   -9.05222215782   -2.00000000000
      6.50803929747    5.92218707193   -9.05222215782   -2.00000000000
      6.50803929747   -5.92218707193   -9.05222215782   -2.00000000000
     -6.50803929747   -5.92218707193   -9.05222215782   -2.00000000000
     -4.52611107891    1.48054676798   11.74398716476   -2.00000000000
      4.52611107891    1.48054676798   11.74398716476   -2.00000000000
      4.52611107891   -1.48054676798   11.74398716476   -2.00000000000
     -4.52611107891   -1.48054676798   11.74398716476   -2.00000000000
    -11.74398716476    1.48054676798   -4.52611107891   -2.00000000000
     11.74398716476    1.48054676798   -4.52611107891   -2.00000000000
     11.74398716476   -1.48054676798   -4.52611107891   -2.00000000000
    -11.74398716476   -1.48054676798   -4.52611107891   -2.00000000000
      0.00000000000   11.84437414385   -4.52611107891    4.00000000000
      0.00000000000  -11.84437414385   -4.52611107891    4.00000000000
     -6.50803929747    2.96109353596   10.47189573458   -2.00000000000
      6.50803929747    2.96109353596   10.47189573458   -2.00000000000
      6.50803929747   -2.96109353596   10.47189573458   -2.00000000000
     -6.50803929747   -2.96109353596   10.47189573458   -2.00000000000
     -0.00000000000    8.88328060789   -9.05222215782   -2.00000000000
     -0.00000000000   -8.88328060789   -9.05222215782   -2.00000000000
     -3.25401964873   11.84437414385    3.25401964873   -2.00000000000
      3.25401964873   11.84437414385    3.25401964873   -2.00000000000
      3.25401964873  -11.84437414385    3.25401964873   -2.00000000000
     -3.25401964873  -11.84437414385    3.25401964873   -2.00000000000
     -3.25401964873   11.84437414385   -3.25401964873   -2.00000000000
      3.25401964873   11.84437414385   -3.25401964873   -2.00000000000
      3.25401964873  -11.84437414385   -3.25401964873   -2.00000000000
     -3.25401964873  -11.84437414385   -3.25401964873   -2.00000000000
     -1.98192821856    4.44164030394   11.74398716476   -2.00000000000
      1.98192821856    4.44164030394   11.74398716476   -2.00000000000
      1.98192821856   -4.44164030394   11.74398716476   -2.00000000000
     -1.98192821856   -4.44164030394   11.74398716476   -2.00000000000
    -11.74398716476    4.44164030394    1.98192821856   -2.00000000000
     11.74398716476    4.44164030394    1.98192821856   -2.00000000000
     11.74398716476   -4.44164030394    1.98192821856   -2.00000000000
    -11.74398716476   -4.44164030394    1.98192821856   -2.00000000000
     -3.25401964873    0.00000000000  -12.30624180655   -2.00000000000
      3.25401964873    0.00000000000  -12.30624180655   -2.00000000000
     -6.50803929747    8.88328060789    6.50803929747   -2.00000000000
      6.50803929747    8.88328060789    6.50803929747   -2.00000000000
      6.50803929747   -8.88328060789    6.50803929747   -2.00000000000
     -6.50803929747   -8.88328060789    6.50803929747   -2.00000000000
     -6.50803929747    8.88328060789   -6.50803929747   -2.00000000000
      6.50803929747    8.88328060789   -6.50803929747   -2.00000000000
      6.50803929747   -8.88328060789   -6.50803929747   -2.00000000000
     -6.50803929747   -8.88328060789   -6.50803929747   -2.00000000000
     -9.76205894620    5.92218707193   -5.79820250908   -2.00000000000
      9.76205894620    5.92218707193   -5.79820250908   -2.00000000000
      9.76205894620   -5.92218707193   -5.79820250908   -2.00000000000
     -9.76205894620   -5.92218707193   -5.79820250908   -2.00000000000
     -6.50803929747    0.00000000000  -11.03415037637    4.00000000000
      6.50803929747    0.00000000000  -11.03415037637    4.00000000000
     -9.76205894620    2.96109353596   -7.78013072764    4.00000000000
      9.76205894620    2.96109353596   -7.78013072764    4.00000000000
      9.76205894620   -2.96109353596   -7.78013072764    4.00000000000
     -9.76205894620   -2.96109353596   -7.78013072764    4.00000000000
      0.00000000000   10.36382737587   -7.78013072764    4.00000000000
      0.00000000000  -10.36382737587   -7.78013072764    4.00000000000
    -11.03415037637    4.44164030394    5.23594786729   -2.00000000000
     11.03415037637    4.44164030394    5.23594786729   -2.00000000000
     11.03415037637   -4.44164030394    5.23594786729   -2.00000000000
    -11.03415037637   -4.44164030394    5.23594786729   -2.00000000000
     -5.23594786729    4.44164030394  -11.03415037637   -2.00000000000
      5.23594786729    4.44164030394  -11.03415037637   -2.00000000000
      5.23594786729   -4.44164030394  -11.03415037637   -2.00000000000
     -5.23594786729   -4.44164030394  -11.03415037637   -2.00000000000
      0.00000000000    0.00000000000   13.01607859493   -2.00000000000
    -13.01607859493    0.00000000000    0.00000000000   -2.00000000000
     13.01607859493    0.00000000000    0.00000000000   -2.00000000000
      0.00000000000    0.00000000000  -13.01607859493   -2.00000000000
     -9.76205894620    1.48054676798    8.48996751602    4.00000000000
      9.76205894620    1.48054676798    8.48996751602    4.00000000000
      9.76205894620   -1.48054676798    8.48996751602    4.00000000000
     -9.76205894620   -1.48054676798    8.48996751602    4.00000000000
     -9.76205894620    7.40273383991   -4.52611107891    4.00000000000
      9.76205894620    7.40273383991   -4.52611107891    4.00000000000
      9.76205894620   -7.40273383991   -4.52611107891    4.00000000000
     -9.76205894620   -7.40273383991   -4.52611107891    4.00000000000
     -3.25401964873    2.96109353596  -12.30624180655   -2.00000000000
      3.25401964873    2.96109353596  -12.30624180655   -2.00000000000
      3.25401964873   -2.96109353596  -12.30624180655   -2.00000000000
     -3.25401964873   -2.96109353596  -12.30624180655   -2.00000000000
     -7.78013072764   10.36382737587    1.98192821856   -2.00000000000
      7.78013072764   10.36382737587    1.98192821856   -2.00000000000
      7.78013072764  -10.36382737587    1.98192821856   -2.00000000000
     -7.78013072764  -10.36382737587    1.98192821856   -2.00000000000
     -1.98192821856   10.36382737587   -7.78013072764   -2.00000000000
      1.98192821856   10.36382737587   -7.78013072764   -2.00000000000
      1.98192821856  -10.36382737587   -7.78013072764   -2.00000000000
     -1.98192821856  -10.36382737587   -7.78013072764   -2.00000000000
     -6.50803929747    2.96109353596  -11.03415037637    4.00000000000
      6.50803929747    2.96109353596  -11.03415037637    4.00000000000
      6.50803929747   -2.96109353596  -11.03415037637    4.00000000000
     -6.50803929747   -2.96109353596  -11.03415037637    4.00000000000
[...]
  166   A         -0.062021      -0.062021
  167   A         -0.058772      -0.058772
  168   A         -0.057940      -0.057940
  169   A         -0.057130      -0.057130
  170   A         -0.055816      -0.055816
  171   A         -0.055657      -0.055657
  172   A         -0.055077      -0.055077
  173   A         -0.052790      -0.052790
  174   A         -0.050916      -0.050916
  175   A         -0.047754      -0.047754
  176   A         -0.047242      -0.047242
  177   A         -0.046789      -0.046789
  178   A         -0.042264      -0.042264
  179   A         -0.037493      -0.037493
  180   A         -0.036064      -0.036064
  181   A         -0.035654      -0.035654
  182   A         -0.035054      -0.035054
  183   A         -0.034770      -0.034770
  184   A         -0.031852      -0.031852
  185   A         -0.031801      -0.031801
  186   A         -0.021352      -0.021352
  187   A         -0.020909      -0.020909
  188   A         -0.020569      -0.020569
  189   A         -0.018884      -0.018884
  190   A         -0.016639      -0.016639
  191   A         -0.016204      -0.016204
  192   A         -0.015846      -0.015846
  193   A         -0.015686      -0.015686
  194   A         -0.012497      -0.012497
  195   A         -0.012185      -0.012185
  196   A         -0.011420      -0.011420
  197   A         -0.010206      -0.010206
  198   A         -0.006573      -0.006573
  199   A         -0.002103      -0.002103
  200   A          0.000506       0.000506
  201   A          0.001305       0.001305
  202   A          0.001338       0.001338
  203   A          0.002782       0.002782
  204   A          0.003393       0.003393
  205   A          0.009279       0.009279
  206   A          0.009955       0.009955
  207   A          0.013564       0.013564
  208   A          0.027613       0.027613
 
  209   A          0.129209       0.129209
  210   A          0.133967       0.133967
  211   A          0.135062       0.135062
  212   A          0.137684       0.137684
  213   A          0.142807       0.142807
  214   A          0.143118       0.143118
  215   A          0.143635       0.143635
  216   A          0.143881       0.143881
  217   A          0.148910       0.148910
  218   A          0.149834       0.149834
  219   A          0.150655       0.150655
  220   A          0.151861       0.151861
  221   A          0.152517       0.152517
  222   A          0.155124       0.155124
  223   A          0.158178       0.158178
  224   A          0.159046       0.159046
  225   A          0.160373       0.160373
  226   A          0.163819       0.163819
  227   A          0.167839       0.167839
  228   A          0.170112       0.170112
  229   A          0.178146       0.178146
  230   A          0.237646       0.237646
  231   A          0.239182       0.239182
  232   A          0.242866       0.242866
  233   A          0.246251       0.246251
  234   A          0.247148       0.247148
  235   A          0.252076       0.252076
  236   A          0.252590       0.252590
  237   A          0.253960       0.253960
  238   A          0.258126       0.258126
  239   A          0.264783       0.264783
  240   A          0.265369       0.265369
  241   A          0.271072       0.271072
  242   A          0.275516       0.275516
  243   A          0.276025       0.276025
  244   A          0.295372       0.295372
  245   A          0.315168       0.315168
  246   A          0.316646       0.316646
  247   A          0.317847       0.317847
  248   A          0.341169       0.341169
  249   A          0.342737       0.342737
  250   A          0.357018       0.357018
  251   A          0.434414       0.434414
  252   A          0.455633       0.455633
  253   A          0.459979       0.459979
  254   A          0.488155       0.488155
  255   A          0.489974       0.489974
  256   A          0.494076       0.494076
  257   A          0.499242       0.499242
  258   A          0.505760       0.505760
  259   A          0.506292       0.506292
  260   A          0.507716       0.507716
  261   A          0.523708       0.523708
  262   A          0.525569       0.525569
  263   A          0.532050       0.532050
  264   A          0.534994       0.534994
  265   A          0.543208       0.543208
  266   A          0.544350       0.544350
  267   A          0.545625       0.545625
  268   A          0.560641       0.560641
  269   A          0.562715       0.562715
  270   A          0.568244       0.568244
  271   A          0.584359       0.584359
  272   A          0.597088       0.597088
  273   A          0.612495       0.612495
  274   A          0.630233       0.630233
  275   A          0.649898       0.649898
  276   A          0.650462       0.650462
  277   A          0.673122       0.673122
  278   A          0.704057       0.704057
  279   A          0.766471       0.766471
  280   A          0.775850       0.775850
  281   A          0.803036       0.803036
  282   A          0.811788       0.811788
  283   A          0.817428       0.817428
  284   A          0.828343       0.828343
  285   A          0.829151       0.829151
  286   A          0.829677       0.829677
  287   A          0.830378       0.830378
  288   A          0.852865       0.852865
  289   A          0.857291       0.857291
  290   A          0.862201       0.862201
  291   A          0.875228       0.875228
  292   A          0.890437       0.890437
  293   A          0.901308       0.901308
  294   A          0.904415       0.904415
  295   A          0.909990       0.909990
  296   A          0.913072       0.913072
  297   A          0.926609       0.926609
  298   A          0.930245       0.930245
  299   A          0.941892       0.941892
  300   A          0.942598       0.942598
  301   A          0.947063       0.947063
  302   A          0.947134       0.947134
  303   A          0.949889       0.949889
  304   A          0.963126       0.963126
  305   A          0.975987       0.975987
  306   A          0.976616       0.976616
  307   A          0.978480       0.978480
  308   A          0.984769       0.984769
  309   A          0.994467       0.994467
  310   A          1.007279       1.007279
  311   A          1.016721       1.016721
  312   A          1.025618       1.025618
  313   A          1.044576       1.044576
  314   A          1.048125       1.048125
  315   A          1.049554       1.049554
  316   A          1.050060       1.050060
  317   A          1.054075       1.054075
  318   A          1.063776       1.063776
  319   A          1.071437       1.071437
  320   A          1.074236       1.074236
  321   A          1.077883       1.077883
  322   A          1.081003       1.081003
  323   A          1.088079       1.088079
  324   A          1.088246       1.088246
  325   A          1.094130       1.094130
  326   A          1.094548       1.094548
  327   A          1.101893       1.101893
  328   A          1.105035       1.105035
  329   A          1.105929       1.105929
  330   A          1.110199       1.110199
  331   A          1.111928       1.111928
  332   A          1.113083       1.113083
  333   A          1.114648       1.114648
  334   A          1.123017       1.123017
  335   A          1.124777       1.124777
  336   A          1.131929       1.131929
  337   A          1.136579       1.136579
  338   A          1.141815       1.141815
  339   A          1.153484       1.153484
  340   A          1.161377       1.161377
  341   A          1.173230       1.173230
  342   A          1.173917       1.173917
  343   A          1.190642       1.190642
  344   A          1.192601       1.192601
  345   A          1.193776       1.193776
  346   A          1.199851       1.199851
  347   A          1.207929       1.207929
  348   A          1.212592       1.212592
  349   A          1.213826       1.213826
  350   A          1.215967       1.215967
  351   A          1.231403       1.231403
  352   A          1.231912       1.231912
  353   A          1.233348       1.233348
  354   A          1.240474       1.240474
  355   A          1.244438       1.244438
  356   A          1.252420       1.252420
  357   A          1.254003       1.254003
  358   A          1.261893       1.261893
  359   A          1.263765       1.263765
  360   A          1.270962       1.270962
  361   A          1.274512       1.274512
  362   A          1.276782       1.276782
  363   A          1.281720       1.281720
  364   A          1.294331       1.294331
  365   A          1.301074       1.301074
  366   A          1.313302       1.313302
  367   A          1.321344       1.321344
  368   A          1.334172       1.334172
  369   A          1.334398       1.334398
  370   A          1.335474       1.335474
  371   A          1.342080       1.342080
  372   A          1.345380       1.345380
  373   A          1.351188       1.351188
  374   A          1.351199       1.351199
  375   A          1.353935       1.353935
  376   A          1.361191       1.361191
  377   A          1.364714       1.364714
  378   A          1.366574       1.366574
  379   A          1.369388       1.369388
  380   A          1.378547       1.378547
  381   A          1.392613       1.392613
  382   A          1.396347       1.396347
  383   A          1.400016       1.400016
  384   A          1.415322       1.415322
  385   A          1.417801       1.417801
  386   A          1.422650       1.422650
  387   A          1.423279       1.423279
  388   A          1.432651       1.432651
  389   A          1.444613       1.444613
  390   A          1.445396       1.445396
  391   A          1.468755       1.468755
  392   A          1.475131       1.475131
  393   A          1.480555       1.480555
  394   A          1.509444       1.509444
  395   A          1.519627       1.519627
  396   A          1.544311       1.544311
  397   A          1.556057       1.556057
  398   A          1.559294       1.559294
  399   A          1.559575       1.559575
  400   A          1.578885       1.578885
  401   A          1.587747       1.587747
  402   A          1.593032       1.593032
  403   A          1.596483       1.596483
  404   A          1.607751       1.607751
  405   A          1.615097       1.615097
  406   A          1.618924       1.618924
  407   A          1.628515       1.628515
  408   A          1.628759       1.628759
  409   A          1.632996       1.632996
  410   A          1.645469       1.645469
  411   A          1.647807       1.647807
  412   A          1.649724       1.649724
  413   A          1.652850       1.652850
  414   A          1.656300       1.656300
  415   A          1.657871       1.657871
  416   A          1.666466       1.666466
  417   A          1.669558       1.669558
  418   A          1.672737       1.672737
  419   A          1.680336       1.680336
  420   A          1.688063       1.688063
  421   A          1.688546       1.688546
  422   A          1.699811       1.699811
  423   A          1.700427       1.700427
  424   A          1.707015       1.707015
  425   A          1.708911       1.708911
  426   A          1.715571       1.715571
  427   A          1.716846       1.716846
  428   A          1.727575       1.727575
  429   A          1.730975       1.730975
  430   A          1.736947       1.736947
  431   A          1.744480       1.744480
  432   A          1.751355       1.751355
  433   A          1.753980       1.753980
  434   A          1.759291       1.759291
  435   A          1.767444       1.767444
  436   A          1.774210       1.774210
  437   A          1.775557       1.775557
  438   A          1.779065       1.779065
  439   A          1.796696       1.796696
  440   A          1.796720       1.796720
  441   A          1.798065       1.798065
  442   A          1.800608       1.800608
  443   A          1.817362       1.817362
  444   A          1.817924       1.817924
  445   A          1.819455       1.819455
  446   A          1.837995       1.837995
  447   A          1.843619       1.843619
  448   A          1.851483       1.851483
  449   A          1.860359       1.860359
  450   A          1.863332       1.863332
  451   A          1.869864       1.869864
  452   A          1.870443       1.870443
  453   A          1.870631       1.870631
  454   A          1.878904       1.878904
  455   A          1.887351       1.887351
  456   A          1.896315       1.896315
  457   A          1.897127       1.897127
  458   A          1.906158       1.906158
  459   A          1.925780       1.925780
  460   A          1.930222       1.930222
  461   A          1.943855       1.943855
  462   A          1.960068       1.960068
  463   A          1.960719       1.960719
  464   A          1.969875       1.969875
  465   A          1.992861       1.992861
  466   A          2.014536       2.014536
  467   A          2.036286       2.036286
  468   A          2.041643       2.041643
  469   A          2.045454       2.045454
  470   A          2.057263       2.057263
  471   A          2.068612       2.068612
  472   A          2.093999       2.093999
  473   A          2.142546       2.142546
  474   A          2.154017       2.154017
  475   A          2.158488       2.158488
  476   A          2.242006       2.242006
  477   A          2.310585       2.310585
  478   A          2.357171       2.357171
  479   A          2.708188       2.708188
  480   A          2.714960       2.714960
  481   A          2.715070       2.715070
  482   A          2.715537       2.715537
  483   A          2.715585       2.715585
  484   A          2.715946       2.715946
  485   A          2.717115       2.717115
  486   A          2.718774       2.718774
  487   A          2.718968       2.718968
  488   A          2.719365       2.719365
  489   A          2.719463       2.719463
  490   A          2.720416       2.720416
  491   A          2.722265       2.722265
  492   A          2.722972       2.722972
  493   A          2.723313       2.723313
  494   A          2.725877       2.725877
  495   A          2.726027       2.726027
  496   A          2.728120       2.728120
  497   A          2.728354       2.728354
  498   A          2.728963       2.728963
  499   A          2.729770       2.729770
  500   A          2.733815       2.733815
  501   A          2.736556       2.736556
  502   A          2.738115       2.738115
  503   A          2.739590       2.739590
  504   A          2.739950       2.739950
  505   A          2.742067       2.742067
  506   A          2.744047       2.744047
  507   A          2.745577       2.745577
  508   A          2.746600       2.746600
  509   A          2.746959       2.746959
  510   A          2.748398       2.748398
  511   A          2.748976       2.748976
  512   A          2.750169       2.750169
  513   A          2.750920       2.750920
  514   A          2.751758       2.751758
  515   A          2.751838       2.751838
  516   A          2.753169       2.753169
  517   A          2.753957       2.753957
  518   A          2.754540       2.754540
  519   A          2.755109       2.755109
  520   A          2.757140       2.757140
  521   A          2.757192       2.757192
  522   A          2.758668       2.758668
  523   A          2.759987       2.759987
  524   A          2.763854       2.763854
  525   A          2.763887       2.763887
  526   A          2.764261       2.764261
  527   A          2.788084       2.788084
  528   A          2.788342       2.788342
  529   A          2.798942       2.798942
  530   A          2.801992       2.801992
  531   A          2.806489       2.806489
  532   A          2.807957       2.807957
  533   A          2.810392       2.810392
  534   A          2.825445       2.825445
  535   A          2.826807       2.826807
  536   A          2.830681       2.830681
  537   A          2.832993       2.832993
  538   A          2.847947       2.847947
  539   A          2.855822       2.855822
  540   A          2.859475       2.859475
  541   A          2.862156       2.862156
  542   A          2.865174       2.865174
  543   A          2.878265       2.878265
  544   A          2.878374       2.878374
  545   A          2.889945       2.889945
  546   A          2.893943       2.893943
  547   A          2.894868       2.894868
  548   A          2.895220       2.895220
  549   A          2.901091       2.901091
  550   A          2.904264       2.904264
  551   A          2.905143       2.905143
  552   A          2.906296       2.906296
  553   A          2.911360       2.911360
  554   A          2.911855       2.911855
  555   A          2.919220       2.919220
  556   A          2.924329       2.924329
  557   A          2.927070       2.927070
  558   A          2.929323       2.929323
  559   A          2.939920       2.939920
  560   A          2.942650       2.942650
  561   A          2.955076       2.955076
  562   A          2.956235       2.956235
  563   A          2.960479       2.960479
  564   A          2.960491       2.960491
  565   A          2.961938       2.961938
  566   A          2.965531       2.965531
  567   A          2.966719       2.966719
  568   A          2.971947       2.971947
  569   A          2.973578       2.973578
  570   A          2.980186       2.980186
  571   A          2.989832       2.989832
  572   A          2.989960       2.989960
  573   A          2.993995       2.993995
  574   A          2.999530       2.999530
  575   A          3.004338       3.004338
  576   A          3.010160       3.010160
  577   A          3.021308       3.021308
  578   A          3.023897       3.023897
  579   A          3.024835       3.024835
  580   A          3.028560       3.028560
  581   A          3.029781       3.029781
  582   A          3.034099       3.034099
  583   A          3.038100       3.038100
  584   A          3.038892       3.038892
  585   A          3.041297       3.041297
  586   A          3.050888       3.050888
  587   A          3.055661       3.055661
  588   A          3.064999       3.064999
  589   A          3.068788       3.068788
  590   A          3.074243       3.074243
  591   A          3.075505       3.075505
  592   A          3.079966       3.079966
  593   A          3.088821       3.088821
  594   A          3.096664       3.096664
  595   A          3.102654       3.102654
  596   A          3.113925       3.113925
  597   A          3.115721       3.115721
  598   A          3.143333       3.143333
  599   A          3.144383       3.144383
  600   A          3.144518       3.144518
  601   A          3.150326       3.150326
  602   A          3.171119       3.171119
  603   A          3.210637       3.210637
  604   A          3.220986       3.220986
  605   A          3.222725       3.222725
  606   A          3.235750       3.235750
  607   A          3.274123       3.274123
  608   A          3.292027       3.292027
  609   A          3.342895       3.342895
  610   A          3.346941       3.346941
  611   A          3.364204       3.364204
  612   A          3.368152       3.368152
  613   A          3.380067       3.380067
  614   A          3.384657       3.384657
  615   A          3.386934       3.386934
  616   A          3.393758       3.393758
  617   A          3.395857       3.395857
  618   A          3.401370       3.401370
  619   A          3.410178       3.410178
  620   A          3.436148       3.436148
  621   A          3.437270       3.437270
  622   A          3.455886       3.455886
  623   A          3.470530       3.470530
 
 RETURNING FROM SCF ALGORITHM
 ======================================================================
 
 ************************ 2021-11-18 18:11:28 *************************
                      Normal termination of mrcc.
 **********************************************************************
