
                                 *****************
                                 * O   R   C   A *
                                 *****************

                                            #,                                       
                                            ###                                      
                                            ####                                     
                                            #####                                    
                                            ######                                   
                                           ########,                                 
                                     ,,################,,,,,                         
                               ,,#################################,,                 
                          ,,##########################################,,             
                       ,#########################################, ''#####,          
                    ,#############################################,,   '####,        
                  ,##################################################,,,,####,       
                ,###########''''           ''''###############################       
              ,#####''   ,,,,##########,,,,          '''####'''          '####       
            ,##' ,,,,###########################,,,                        '##       
           ' ,,###''''                  '''############,,,                           
         ,,##''                                '''############,,,,        ,,,,,,###''
      ,#''                                            '''#######################'''  
     '                                                          ''''####''''         
             ,#######,   #######,   ,#######,      ##                                
            ,#'     '#,  ##    ##  ,#'     '#,    #''#        ######   ,####,        
            ##       ##  ##   ,#'  ##            #'  '#       #        #'  '#        
            ##       ##  #######   ##           ,######,      #####,   #    #        
            '#,     ,#'  ##    ##  '#,     ,#' ,#      #,         ##   #,  ,#        
             '#######'   ##     ##  '#######'  #'      '#     #####' # '####'        



                  #######################################################
                  #                        -***-                        #
                  #          Department of theory and spectroscopy      #
                  #    Directorship and core code : Frank Neese         #
                  #        Max Planck Institute fuer Kohlenforschung    #
                  #                Kaiser Wilhelm Platz 1               #
                  #                 D-45470 Muelheim/Ruhr               #
                  #                      Germany                        #
                  #                                                     #
                  #                  All rights reserved                #
                  #                        -***-                        #
                  #######################################################


                         Program Version 5.0.1 -  RELEASE  -


 With contributions from (in alphabetic order):
   Daniel Aravena         : Magnetic Suceptibility
   Michael Atanasov       : Ab Initio Ligand Field Theory (pilot matlab implementation)
   Alexander A. Auer      : GIAO ZORA, VPT2 properties, NMR spectrum
   Ute Becker             : Parallelization
   Giovanni Bistoni       : ED, misc. LED, open-shell LED, HFLD
   Martin Brehm           : Molecular dynamics
   Dmytro Bykov           : SCF Hessian
   Vijay G. Chilkuri      : MRCI spin determinant printing, contributions to CSF-ICE
   Dipayan Datta          : RHF DLPNO-CCSD density
   Achintya Kumar Dutta   : EOM-CC, STEOM-CC
   Dmitry Ganyushin       : Spin-Orbit,Spin-Spin,Magnetic field MRCI
   Miquel Garcia          : C-PCM and meta-GGA Hessian, CC/C-PCM, Gaussian charge scheme
   Yang Guo               : DLPNO-NEVPT2, F12-NEVPT2, CIM, IAO-localization
   Andreas Hansen         : Spin unrestricted coupled pair/coupled cluster methods
   Benjamin Helmich-Paris : MC-RPA, TRAH-SCF, COSX integrals
   Lee Huntington         : MR-EOM, pCC
   Robert Izsak           : Overlap fitted RIJCOSX, COSX-SCS-MP3, EOM
   Marcus Kettner         : VPT2
   Christian Kollmar      : KDIIS, OOCD, Brueckner-CCSD(T), CCSD density, CASPT2, CASPT2-K
   Simone Kossmann        : Meta GGA functionals, TD-DFT gradient, OOMP2, MP2 Hessian
   Martin Krupicka        : Initial AUTO-CI
   Lucas Lang             : DCDCAS
   Marvin Lechner         : AUTO-CI (C++ implementation), FIC-MRCC
   Dagmar Lenk            : GEPOL surface, SMD
   Dimitrios Liakos       : Extrapolation schemes; Compound Job, initial MDCI parallelization
   Dimitrios Manganas     : Further ROCIS development; embedding schemes
   Dimitrios Pantazis     : SARC Basis sets
   Anastasios Papadopoulos: AUTO-CI, single reference methods and gradients
   Taras Petrenko         : DFT Hessian,TD-DFT gradient, ASA, ECA, R-Raman, ABS, FL, XAS/XES, NRVS
   Peter Pinski           : DLPNO-MP2, DLPNO-MP2 Gradient
   Christoph Reimann      : Effective Core Potentials
   Marius Retegan         : Local ZFS, SOC
   Christoph Riplinger    : Optimizer, TS searches, QM/MM, DLPNO-CCSD(T), (RO)-DLPNO pert. Triples
   Tobias Risthaus        : Range-separated hybrids, TD-DFT gradient, RPA, STAB
   Michael Roemelt        : Original ROCIS implementation
   Masaaki Saitow         : Open-shell DLPNO-CCSD energy and density
   Barbara Sandhoefer     : DKH picture change effects
   Avijit Sen             : IP-ROCIS
   Kantharuban Sivalingam : CASSCF convergence, NEVPT2, FIC-MRCI
   Bernardo de Souza      : ESD, SOC TD-DFT
   Georgi Stoychev        : AutoAux, RI-MP2 NMR, DLPNO-MP2 response
   Willem Van den Heuvel  : Paramagnetic NMR
   Boris Wezisla          : Elementary symmetry handling
   Frank Wennmohs         : Technical directorship


 We gratefully acknowledge several colleagues who have allowed us to
 interface, adapt or use parts of their codes:
   Stefan Grimme, W. Hujo, H. Kruse, P. Pracht,  : VdW corrections, initial TS optimization,
                  C. Bannwarth, S. Ehlert          DFT functionals, gCP, sTDA/sTD-DF
   Ed Valeev, F. Pavosevic, A. Kumar             : LibInt (2-el integral package), F12 methods
   Garnet Chan, S. Sharma, J. Yang, R. Olivares  : DMRG
   Ulf Ekstrom                                   : XCFun DFT Library
   Mihaly Kallay                                 : mrcc  (arbitrary order and MRCC methods)
   Jiri Pittner, Ondrej Demel                    : Mk-CCSD
   Frank Weinhold                                : gennbo (NPA and NBO analysis)
   Christopher J. Cramer and Donald G. Truhlar   : smd solvation model
   Lars Goerigk                                  : TD-DFT with DH, B97 family of functionals
   V. Asgeirsson, H. Jonsson                     : NEB implementation
   FAccTs GmbH                                   : IRC, NEB, NEB-TS, DLPNO-Multilevel, CI-OPT
                                                   MM, QMMM, 2- and 3-layer-ONIOM, Crystal-QMMM,
                                                   LR-CPCM, SF, NACMEs, symmetry and pop. for TD-DFT,
                                                   nearIR, NL-DFT gradient (VV10), updates on ESD,
                                                   ML-optimized integration grids
   S Lehtola, MJT Oliveira, MAL Marques          : LibXC Library
   Liviu Ungur et al                             : ANISO software


 Your calculation uses the libint2 library for the computation of 2-el integrals
 For citations please refer to: http://libint.valeyev.net

 Your ORCA version has been built with support for libXC version: 5.1.0
 For citations please refer to: https://tddft.org/programs/libxc/

 This ORCA versions uses:
   CBLAS   interface :  Fast vector & matrix operations
   LAPACKE interface :  Fast linear algebra routines
   SCALAPACK package :  Parallel linear algebra routines
   Shared memory     :  Shared parallel matrices
   BLAS/LAPACK       :  OpenBLAS 0.3.15  USE64BITINT DYNAMIC_ARCH NO_AFFINITY SkylakeX SINGLE_THREADED
        Core in use  :  SkylakeX
   Copyright (c) 2011-2014, The OpenBLAS Project


SCAN-COORDS
================================================================================

----- Orbital basis set information -----
Your calculation utilizes the basis: def2-SVP
   F. Weigend and R. Ahlrichs, Phys. Chem. Chem. Phys. 7, 3297 (2005).

----- AuxJ basis set information -----
Your calculation utilizes the auxiliary basis: def2/J
   F. Weigend, Phys. Chem. Chem. Phys. 8, 1057 (2006).

================================================================================
                                        WARNINGS
                       Please study these warnings very carefully!
================================================================================

WARNING: The globally-selected AuxJ basis set is optimized for use with ECPs
         Make sure a suitable alternative is explicitly given all heavy elements (Z>36)

INFO   : the flag for use of the SHARK integral package has been found!

================================================================================
                                       INPUT FILE
================================================================================
NAME = orca.inp
|  1> ! NormalSCF SlowConv DIIS NOTRAH
|  2> %maxcore 18000
|  3> %pal
|  4>   nprocs 16
|  5> end
|  6> %pointcharges "orca.bq"
|  7> %method
|  8>   Method DFT
|  9>   Functional PBE
| 10>   RI on
| 11>   RunTyp Energy
| 12> end
| 13> %basis
| 14>   Basis "def2-SVP"
| 15>   Aux "def2/J"
| 16> end
| 17> %scf
| 18>   HFTyp rks
| 19>   Guess Hueckel
| 20>   AutoStart True
| 21>   SCFMode Direct
| 22>   MaxIter 1000
| 23>   sthresh 1e-6
| 24> end
| 25> %coords
| 26>   CTyp xyz
| 27>   Mult 1
| 28>   Units angs
| 29>   Charge 0
| 30>   coords
| 31> O                       0.00000000000    0.00000000000    0.00000000000
| 32> Ti                      0.00000000000    1.48054676798   -1.27209143018
| 33> Ti                      0.00000000000   -1.48054676798   -1.27209143018
| 34> Ti                      0.00000000000    0.00000000000    1.98192821856
| 35> O                      -0.00000000000    0.00000000000   -2.54418286035
| 36> O                      -1.27209143018    1.48054676798    1.98192821856
| 37> O                       1.27209143018    1.48054676798    1.98192821856
| 38> O                       1.27209143018   -1.48054676798    1.98192821856
| 39> O                      -1.27209143018   -1.48054676798    1.98192821856
| 40> O                      -1.98192821856    1.48054676798   -1.27209143018
| 41> O                       1.98192821856    1.48054676798   -1.27209143018
| 42> O                       1.98192821856   -1.48054676798   -1.27209143018
| 43> O                      -1.98192821856   -1.48054676798   -1.27209143018
| 44> O                       0.00000000000    2.96109353596    0.00000000000
| 45> O                       0.00000000000   -2.96109353596    0.00000000000
| 46> O                      -3.25401964873    0.00000000000    0.70983678838
| 47> O                       3.25401964873    0.00000000000    0.70983678838
| 48> Ti                     -3.25401964873    0.00000000000   -1.27209143018
| 49> Ti                      3.25401964873    0.00000000000   -1.27209143018
| 50> Ti                      0.00000000000    2.96109353596    1.98192821856
| 51> Ti                      0.00000000000   -2.96109353596    1.98192821856
| 52> O                      -0.00000000000    2.96109353596   -2.54418286035
| 53> O                      -0.00000000000   -2.96109353596   -2.54418286035
| 54> O                      -0.00000000000    0.00000000000    3.96385643712
| 55> Ti                     -3.25401964873    1.48054676798    1.98192821856
| 56> Ti                      3.25401964873    1.48054676798    1.98192821856
| 57> Ti                      3.25401964873   -1.48054676798    1.98192821856
| 58> Ti                     -3.25401964873   -1.48054676798    1.98192821856
| 59> O                      -3.25401964873    2.96109353596    0.70983678838
| 60> O                       3.25401964873    2.96109353596    0.70983678838
| 61> O                       3.25401964873   -2.96109353596    0.70983678838
| 62> O                      -3.25401964873   -2.96109353596    0.70983678838
| 63> Ti                      0.00000000000    0.00000000000   -4.52611107891
| 64> Ti                     -3.25401964873    2.96109353596   -1.27209143018
| 65> Ti                      3.25401964873    2.96109353596   -1.27209143018
| 66> Ti                      3.25401964873   -2.96109353596   -1.27209143018
| 67> Ti                     -3.25401964873   -2.96109353596   -1.27209143018
| 68> O                      -3.25401964873    0.00000000000    3.25401964873
| 69> O                       3.25401964873    0.00000000000    3.25401964873
| 70> O                      -3.25401964873    0.00000000000   -3.25401964873
| 71> O                       3.25401964873    0.00000000000   -3.25401964873
| 72> Ti                      0.00000000000    4.44164030394   -1.27209143018
| 73> Ti                      0.00000000000   -4.44164030394   -1.27209143018
| 74> O                      -4.52611107891    1.48054676798   -1.27209143018
| 75> O                       4.52611107891    1.48054676798   -1.27209143018
| 76> O                       4.52611107891   -1.48054676798   -1.27209143018
| 77> O                      -4.52611107891   -1.48054676798   -1.27209143018
| 78> O                      -1.27209143018    1.48054676798   -4.52611107891
| 79> O                       1.27209143018    1.48054676798   -4.52611107891
| 80> O                       1.27209143018   -1.48054676798   -4.52611107891
| 81> O                      -1.27209143018   -1.48054676798   -4.52611107891
| 82> O                      -0.00000000000    2.96109353596    3.96385643712
| 83> O                      -0.00000000000   -2.96109353596    3.96385643712
| 84> O                      -1.27209143018    4.44164030394    1.98192821856
| 85> O                       1.27209143018    4.44164030394    1.98192821856
| 86> O                       1.27209143018   -4.44164030394    1.98192821856
| 87> O                      -1.27209143018   -4.44164030394    1.98192821856
| 88> O                      -1.98192821856    4.44164030394   -1.27209143018
| 89> O                       1.98192821856    4.44164030394   -1.27209143018
| 90> O                       1.98192821856   -4.44164030394   -1.27209143018
| 91> O                      -1.98192821856   -4.44164030394   -1.27209143018
| 92> Ti                      0.00000000000    2.96109353596   -4.52611107891
| 93> Ti                      0.00000000000   -2.96109353596   -4.52611107891
| 94> Ti                      0.00000000000    1.48054676798    5.23594786729
| 95> Ti                      0.00000000000   -1.48054676798    5.23594786729
| 96> O                      -3.25401964873    2.96109353596    3.25401964873
| 97> O                       3.25401964873    2.96109353596    3.25401964873
| 98> O                       3.25401964873   -2.96109353596    3.25401964873
| 99> O                      -3.25401964873   -2.96109353596    3.25401964873
|100> O                      -3.25401964873    2.96109353596   -3.25401964873
|101> O                       3.25401964873    2.96109353596   -3.25401964873
|102> O                       3.25401964873   -2.96109353596   -3.25401964873
|103> O                      -3.25401964873   -2.96109353596   -3.25401964873
|104> Ti                     -3.25401964873    1.48054676798   -4.52611107891
|105> Ti                      3.25401964873    1.48054676798   -4.52611107891
|106> Ti                      3.25401964873   -1.48054676798   -4.52611107891
|107> Ti                     -3.25401964873   -1.48054676798   -4.52611107891
|108> O                      -1.98192821856    1.48054676798    5.23594786729
|109> O                       1.98192821856    1.48054676798    5.23594786729
|110> O                       1.98192821856   -1.48054676798    5.23594786729
|111> O                      -1.98192821856   -1.48054676798    5.23594786729
|112> O                      -5.23594786729    1.48054676798    1.98192821856
|113> O                       5.23594786729    1.48054676798    1.98192821856
|114> O                       5.23594786729   -1.48054676798    1.98192821856
|115> O                      -5.23594786729   -1.48054676798    1.98192821856
|116> Ti                     -3.25401964873    4.44164030394    1.98192821856
|117> Ti                      3.25401964873    4.44164030394    1.98192821856
|118> Ti                      3.25401964873   -4.44164030394    1.98192821856
|119> Ti                     -3.25401964873   -4.44164030394    1.98192821856
|120> O                       0.00000000000    5.92218707193    0.00000000000
|121> O                       0.00000000000   -5.92218707193    0.00000000000
|122> Ti                     -3.25401964873    0.00000000000    5.23594786729
|123> Ti                      3.25401964873    0.00000000000    5.23594786729
|124> Ti                      0.00000000000    5.92218707193    1.98192821856
|125> Ti                      0.00000000000   -5.92218707193    1.98192821856
|126> O                      -0.00000000000    5.92218707193   -2.54418286035
|127> O                      -0.00000000000   -5.92218707193   -2.54418286035
|128> O                      -4.52611107891    4.44164030394   -1.27209143018
|129> O                       4.52611107891    4.44164030394   -1.27209143018
|130> O                       4.52611107891   -4.44164030394   -1.27209143018
|131> O                      -4.52611107891   -4.44164030394   -1.27209143018
|132> O                      -1.27209143018    4.44164030394   -4.52611107891
|133> O                       1.27209143018    4.44164030394   -4.52611107891
|134> O                       1.27209143018   -4.44164030394   -4.52611107891
|135> O                      -1.27209143018   -4.44164030394   -4.52611107891
|136> O                      -6.50803929747    0.00000000000    0.00000000000
|137> O                       6.50803929747    0.00000000000    0.00000000000
|138> O                       0.00000000000    0.00000000000   -6.50803929747
|139> O                      -3.25401964873    0.00000000000   -5.79820250908
|140> O                       3.25401964873    0.00000000000   -5.79820250908
|141> O                      -3.25401964873    5.92218707193    0.70983678838
|142> O                       3.25401964873    5.92218707193    0.70983678838
|143> O                       3.25401964873   -5.92218707193    0.70983678838
|144> O                      -3.25401964873   -5.92218707193    0.70983678838
|145> Ti                     -6.50803929747    1.48054676798   -1.27209143018
|146> Ti                      6.50803929747    1.48054676798   -1.27209143018
|147> Ti                      6.50803929747   -1.48054676798   -1.27209143018
|148> Ti                     -6.50803929747   -1.48054676798   -1.27209143018
|149> Ti                     -6.50803929747    0.00000000000    1.98192821856
|150> Ti                      6.50803929747    0.00000000000    1.98192821856
|151> Ti                     -3.25401964873    2.96109353596    5.23594786729
|152> Ti                      3.25401964873    2.96109353596    5.23594786729
|153> Ti                      3.25401964873   -2.96109353596    5.23594786729
|154> Ti                     -3.25401964873   -2.96109353596    5.23594786729
|155> Ti                      0.00000000000    4.44164030394    5.23594786729
|156> Ti                      0.00000000000   -4.44164030394    5.23594786729
|157> Ti                     -3.25401964873    5.92218707193   -1.27209143018
|158> Ti                      3.25401964873    5.92218707193   -1.27209143018
|159> Ti                      3.25401964873   -5.92218707193   -1.27209143018
|160> Ti                     -3.25401964873   -5.92218707193   -1.27209143018
|161> O                      -6.50803929747    0.00000000000   -2.54418286035
|162> O                       6.50803929747    0.00000000000   -2.54418286035
|163> O                      -4.52611107891    1.48054676798    5.23594786729
|164> O                       4.52611107891    1.48054676798    5.23594786729
|165> O                       4.52611107891   -1.48054676798    5.23594786729
|166> O                      -4.52611107891   -1.48054676798    5.23594786729
|167> O                      -5.23594786729    1.48054676798   -4.52611107891
|168> O                       5.23594786729    1.48054676798   -4.52611107891
|169> O                       5.23594786729   -1.48054676798   -4.52611107891
|170> O                      -5.23594786729   -1.48054676798   -4.52611107891
|171> O                      -0.00000000000    5.92218707193    3.96385643712
|172> O                      -0.00000000000   -5.92218707193    3.96385643712
|173> Ti                     -3.25401964873    4.44164030394   -4.52611107891
|174> Ti                      3.25401964873    4.44164030394   -4.52611107891
|175> Ti                      3.25401964873   -4.44164030394   -4.52611107891
|176> Ti                     -3.25401964873   -4.44164030394   -4.52611107891
|177> O                      -1.98192821856    4.44164030394    5.23594786729
|178> O                       1.98192821856    4.44164030394    5.23594786729
|179> O                       1.98192821856   -4.44164030394    5.23594786729
|180> O                      -1.98192821856   -4.44164030394    5.23594786729
|181> O                      -5.23594786729    4.44164030394    1.98192821856
|182> O                       5.23594786729    4.44164030394    1.98192821856
|183> O                       5.23594786729   -4.44164030394    1.98192821856
|184> O                      -5.23594786729   -4.44164030394    1.98192821856
|185> O                       0.00000000000    2.96109353596    6.50803929747
|186> O                       0.00000000000   -2.96109353596    6.50803929747
|187> O                      -6.50803929747    2.96109353596    0.00000000000
|188> O                       6.50803929747    2.96109353596    0.00000000000
|189> O                       6.50803929747   -2.96109353596    0.00000000000
|190> O                      -6.50803929747   -2.96109353596    0.00000000000
|191> O                       0.00000000000    2.96109353596   -6.50803929747
|192> O                       0.00000000000   -2.96109353596   -6.50803929747
|193> O                      -3.25401964873    2.96109353596   -5.79820250908
|194> O                       3.25401964873    2.96109353596   -5.79820250908
|195> O                       3.25401964873   -2.96109353596   -5.79820250908
|196> O                      -3.25401964873   -2.96109353596   -5.79820250908
|197> Ti                     -6.50803929747    2.96109353596    1.98192821856
|198> Ti                      6.50803929747    2.96109353596    1.98192821856
|199> Ti                      6.50803929747   -2.96109353596    1.98192821856
|200> Ti                     -6.50803929747   -2.96109353596    1.98192821856
|201> Ti                      0.00000000000    5.92218707193   -4.52611107891
|202> Ti                      0.00000000000   -5.92218707193   -4.52611107891
|203> O                      -3.25401964873    5.92218707193    3.25401964873
|204> O                       3.25401964873    5.92218707193    3.25401964873
|205> O                       3.25401964873   -5.92218707193    3.25401964873
|206> O                      -3.25401964873   -5.92218707193    3.25401964873
|207> O                      -3.25401964873    5.92218707193   -3.25401964873
|208> O                       3.25401964873    5.92218707193   -3.25401964873
|209> O                       3.25401964873   -5.92218707193   -3.25401964873
|210> O                      -3.25401964873   -5.92218707193   -3.25401964873
|211> Ti>    4.00000000000    0.00000000000    7.40273383991   -1.27209143018
|212> NewECP
|213> N_core 0
|214>   lmax f
|215>   s 2
|216>    1      0.860000       9.191690  2
|217>    2      0.172000       0.008301  2
|218>   p 2
|219>    1      0.860000      17.997720  2
|220>    2      0.172000      -0.032600  2
|221>   d 2
|222>    1      1.600000      -9.504310  2
|223>    2      0.320000      -0.151370  2
|224>   f 1
|225>    1      1.000000000    0.000000000 2
|226> end
|227> Ti>    4.00000000000    0.00000000000   -7.40273383991   -1.27209143018
|228> NewECP
|229> N_core 0
|230>   lmax f
|231>   s 2
|232>    1      0.860000       9.191690  2
|233>    2      0.172000       0.008301  2
|234>   p 2
|235>    1      0.860000      17.997720  2
|236>    2      0.172000      -0.032600  2
|237>   d 2
|238>    1      1.600000      -9.504310  2
|239>    2      0.320000      -0.151370  2
|240>   f 1
|241>    1      1.000000000    0.000000000 2
|242> end
|243> Ti>    4.00000000000    0.00000000000    1.48054676798   -7.78013072764
|244> NewECP
|245> N_core 0
|246>   lmax f
|247>   s 2
|248>    1      0.860000       9.191690  2
|249>    2      0.172000       0.008301  2
|250>   p 2
|251>    1      0.860000      17.997720  2
|252>    2      0.172000      -0.032600  2
|253>   d 2
|254>    1      1.600000      -9.504310  2
|255>    2      0.320000      -0.151370  2
|256>   f 1
|257>    1      1.000000000    0.000000000 2
|258> end
|259> Ti>    4.00000000000    0.00000000000   -1.48054676798   -7.78013072764
|260> NewECP
|261> N_core 0
|262>   lmax f
|263>   s 2
|264>    1      0.860000       9.191690  2
|265>    2      0.172000       0.008301  2
|266>   p 2
|267>    1      0.860000      17.997720  2
|268>    2      0.172000      -0.032600  2
|269>   d 2
|270>    1      1.600000      -9.504310  2
|271>    2      0.320000      -0.151370  2
|272>   f 1
|273>    1      1.000000000    0.000000000 2
|274> end
|275> Ti>    4.00000000000   -6.50803929747    0.00000000000   -4.52611107891
|276> NewECP
|277> N_core 0
|278>   lmax f
|279>   s 2
|280>    1      0.860000       9.191690  2
|281>    2      0.172000       0.008301  2
|282>   p 2
|283>    1      0.860000      17.997720  2
|284>    2      0.172000      -0.032600  2
|285>   d 2
|286>    1      1.600000      -9.504310  2
|287>    2      0.320000      -0.151370  2
|288>   f 1
|289>    1      1.000000000    0.000000000 2
|290> end
|291> Ti>    4.00000000000    6.50803929747    0.00000000000   -4.52611107891
|292> NewECP
|293> N_core 0
|294>   lmax f
|295>   s 2
|296>    1      0.860000       9.191690  2
|297>    2      0.172000       0.008301  2
|298>   p 2
|299>    1      0.860000      17.997720  2
|300>    2      0.172000      -0.032600  2
|301>   d 2
|302>    1      1.600000      -9.504310  2
|303>    2      0.320000      -0.151370  2
|304>   f 1
|305>    1      1.000000000    0.000000000 2
|306> end
|307> Ti>    4.00000000000   -6.50803929747    4.44164030394   -1.27209143018
|308> NewECP
|309> N_core 0
|310>   lmax f
|311>   s 2
|312>    1      0.860000       9.191690  2
|313>    2      0.172000       0.008301  2
|314>   p 2
|315>    1      0.860000      17.997720  2
|316>    2      0.172000      -0.032600  2
|317>   d 2
|318>    1      1.600000      -9.504310  2
|319>    2      0.320000      -0.151370  2
|320>   f 1
|321>    1      1.000000000    0.000000000 2
|322> end
|323> Ti>    4.00000000000    6.50803929747    4.44164030394   -1.27209143018
|324> NewECP
|325> N_core 0
|326>   lmax f
|327>   s 2
|328>    1      0.860000       9.191690  2
|329>    2      0.172000       0.008301  2
|330>   p 2
|331>    1      0.860000      17.997720  2
|332>    2      0.172000      -0.032600  2
|333>   d 2
|334>    1      1.600000      -9.504310  2
|335>    2      0.320000      -0.151370  2
|336>   f 1
|337>    1      1.000000000    0.000000000 2
|338> end
|339> Ti>    4.00000000000    6.50803929747   -4.44164030394   -1.27209143018
|340> NewECP
|341> N_core 0
|342>   lmax f
|343>   s 2
|344>    1      0.860000       9.191690  2
|345>    2      0.172000       0.008301  2
|346>   p 2
|347>    1      0.860000      17.997720  2
|348>    2      0.172000      -0.032600  2
|349>   d 2
|350>    1      1.600000      -9.504310  2
|351>    2      0.320000      -0.151370  2
|352>   f 1
|353>    1      1.000000000    0.000000000 2
|354> end
|355> Ti>    4.00000000000   -6.50803929747   -4.44164030394   -1.27209143018
|356> NewECP
|357> N_core 0
|358>   lmax f
|359>   s 2
|360>    1      0.860000       9.191690  2
|361>    2      0.172000       0.008301  2
|362>   p 2
|363>    1      0.860000      17.997720  2
|364>    2      0.172000      -0.032600  2
|365>   d 2
|366>    1      1.600000      -9.504310  2
|367>    2      0.320000      -0.151370  2
|368>   f 1
|369>    1      1.000000000    0.000000000 2
|370> end
|371> Ti>    4.00000000000   -3.25401964873    7.40273383991    1.98192821856
|372> NewECP
|373> N_core 0
|374>   lmax f
|375>   s 2
|376>    1      0.860000       9.191690  2
|377>    2      0.172000       0.008301  2
|378>   p 2
|379>    1      0.860000      17.997720  2
|380>    2      0.172000      -0.032600  2
|381>   d 2
|382>    1      1.600000      -9.504310  2
|383>    2      0.320000      -0.151370  2
|384>   f 1
|385>    1      1.000000000    0.000000000 2
|386> end
|387> Ti>    4.00000000000    3.25401964873    7.40273383991    1.98192821856
|388> NewECP
|389> N_core 0
|390>   lmax f
|391>   s 2
|392>    1      0.860000       9.191690  2
|393>    2      0.172000       0.008301  2
|394>   p 2
|395>    1      0.860000      17.997720  2
|396>    2      0.172000      -0.032600  2
|397>   d 2
|398>    1      1.600000      -9.504310  2
|399>    2      0.320000      -0.151370  2
|400>   f 1
|401>    1      1.000000000    0.000000000 2
|402> end
|403> Ti>    4.00000000000    3.25401964873   -7.40273383991    1.98192821856
|404> NewECP
|405> N_core 0
|406>   lmax f
|407>   s 2
|408>    1      0.860000       9.191690  2
|409>    2      0.172000       0.008301  2
|410>   p 2
|411>    1      0.860000      17.997720  2
|412>    2      0.172000      -0.032600  2
|413>   d 2
|414>    1      1.600000      -9.504310  2
|415>    2      0.320000      -0.151370  2
|416>   f 1
|417>    1      1.000000000    0.000000000 2
|418> end
|419> Ti>    4.00000000000   -3.25401964873   -7.40273383991    1.98192821856
|420> NewECP
|421> N_core 0
|422>   lmax f
|423>   s 2
|424>    1      0.860000       9.191690  2
|425>    2      0.172000       0.008301  2
|426>   p 2
|427>    1      0.860000      17.997720  2
|428>    2      0.172000      -0.032600  2
|429>   d 2
|430>    1      1.600000      -9.504310  2
|431>    2      0.320000      -0.151370  2
|432>   f 1
|433>    1      1.000000000    0.000000000 2
|434> end
|435> Ti>    4.00000000000   -3.25401964873    0.00000000000   -7.78013072764
|436> NewECP
|437> N_core 0
|438>   lmax f
|439>   s 2
|440>    1      0.860000       9.191690  2
|441>    2      0.172000       0.008301  2
|442>   p 2
|443>    1      0.860000      17.997720  2
|444>    2      0.172000      -0.032600  2
|445>   d 2
|446>    1      1.600000      -9.504310  2
|447>    2      0.320000      -0.151370  2
|448>   f 1
|449>    1      1.000000000    0.000000000 2
|450> end
|451> Ti>    4.00000000000    3.25401964873    0.00000000000   -7.78013072764
|452> NewECP
|453> N_core 0
|454>   lmax f
|455>   s 2
|456>    1      0.860000       9.191690  2
|457>    2      0.172000       0.008301  2
|458>   p 2
|459>    1      0.860000      17.997720  2
|460>    2      0.172000      -0.032600  2
|461>   d 2
|462>    1      1.600000      -9.504310  2
|463>    2      0.320000      -0.151370  2
|464>   f 1
|465>    1      1.000000000    0.000000000 2
|466> end
|467> Ti>    4.00000000000   -6.50803929747    2.96109353596   -4.52611107891
|468> NewECP
|469> N_core 0
|470>   lmax f
|471>   s 2
|472>    1      0.860000       9.191690  2
|473>    2      0.172000       0.008301  2
|474>   p 2
|475>    1      0.860000      17.997720  2
|476>    2      0.172000      -0.032600  2
|477>   d 2
|478>    1      1.600000      -9.504310  2
|479>    2      0.320000      -0.151370  2
|480>   f 1
|481>    1      1.000000000    0.000000000 2
|482> end
|483> Ti>    4.00000000000    6.50803929747    2.96109353596   -4.52611107891
|484> NewECP
|485> N_core 0
|486>   lmax f
|487>   s 2
|488>    1      0.860000       9.191690  2
|489>    2      0.172000       0.008301  2
|490>   p 2
|491>    1      0.860000      17.997720  2
|492>    2      0.172000      -0.032600  2
|493>   d 2
|494>    1      1.600000      -9.504310  2
|495>    2      0.320000      -0.151370  2
|496>   f 1
|497>    1      1.000000000    0.000000000 2
|498> end
|499> Ti>    4.00000000000    6.50803929747   -2.96109353596   -4.52611107891
|500> NewECP
|501> N_core 0
|502>   lmax f
|503>   s 2
|504>    1      0.860000       9.191690  2
|505>    2      0.172000       0.008301  2
|506>   p 2
|507>    1      0.860000      17.997720  2
|508>    2      0.172000      -0.032600  2
|509>   d 2
|510>    1      1.600000      -9.504310  2
|511>    2      0.320000      -0.151370  2
|512>   f 1
|513>    1      1.000000000    0.000000000 2
|514> end
|515> Ti>    4.00000000000   -6.50803929747   -2.96109353596   -4.52611107891
|516> NewECP
|517> N_core 0
|518>   lmax f
|519>   s 2
|520>    1      0.860000       9.191690  2
|521>    2      0.172000       0.008301  2
|522>   p 2
|523>    1      0.860000      17.997720  2
|524>    2      0.172000      -0.032600  2
|525>   d 2
|526>    1      1.600000      -9.504310  2
|527>    2      0.320000      -0.151370  2
|528>   f 1
|529>    1      1.000000000    0.000000000 2
|530> end
|531> Ti>    4.00000000000   -6.50803929747    1.48054676798    5.23594786729
|532> NewECP
|533> N_core 0
|534>   lmax f
|535>   s 2
|536>    1      0.860000       9.191690  2
|537>    2      0.172000       0.008301  2
|538>   p 2
|539>    1      0.860000      17.997720  2
|540>    2      0.172000      -0.032600  2
|541>   d 2
|542>    1      1.600000      -9.504310  2
|543>    2      0.320000      -0.151370  2
|544>   f 1
|545>    1      1.000000000    0.000000000 2
|546> end
|547> Ti>    4.00000000000    6.50803929747    1.48054676798    5.23594786729
|548> NewECP
|549> N_core 0
|550>   lmax f
|551>   s 2
|552>    1      0.860000       9.191690  2
|553>    2      0.172000       0.008301  2
|554>   p 2
|555>    1      0.860000      17.997720  2
|556>    2      0.172000      -0.032600  2
|557>   d 2
|558>    1      1.600000      -9.504310  2
|559>    2      0.320000      -0.151370  2
|560>   f 1
|561>    1      1.000000000    0.000000000 2
|562> end
|563> Ti>    4.00000000000    6.50803929747   -1.48054676798    5.23594786729
|564> NewECP
|565> N_core 0
|566>   lmax f
|567>   s 2
|568>    1      0.860000       9.191690  2
|569>    2      0.172000       0.008301  2
|570>   p 2
|571>    1      0.860000      17.997720  2
|572>    2      0.172000      -0.032600  2
|573>   d 2
|574>    1      1.600000      -9.504310  2
|575>    2      0.320000      -0.151370  2
|576>   f 1
|577>    1      1.000000000    0.000000000 2
|578> end
|579> Ti>    4.00000000000   -6.50803929747   -1.48054676798    5.23594786729
|580> NewECP
|581> N_core 0
|582>   lmax f
|583>   s 2
|584>    1      0.860000       9.191690  2
|585>    2      0.172000       0.008301  2
|586>   p 2
|587>    1      0.860000      17.997720  2
|588>    2      0.172000      -0.032600  2
|589>   d 2
|590>    1      1.600000      -9.504310  2
|591>    2      0.320000      -0.151370  2
|592>   f 1
|593>    1      1.000000000    0.000000000 2
|594> end
|595> Ti>    4.00000000000    0.00000000000    0.00000000000    8.48996751602
|596> NewECP
|597> N_core 0
|598>   lmax f
|599>   s 2
|600>    1      0.860000       9.191690  2
|601>    2      0.172000       0.008301  2
|602>   p 2
|603>    1      0.860000      17.997720  2
|604>    2      0.172000      -0.032600  2
|605>   d 2
|606>    1      1.600000      -9.504310  2
|607>    2      0.320000      -0.151370  2
|608>   f 1
|609>    1      1.000000000    0.000000000 2
|610> end
|611> Ti>    4.00000000000   -3.25401964873    5.92218707193    5.23594786729
|612> NewECP
|613> N_core 0
|614>   lmax f
|615>   s 2
|616>    1      0.860000       9.191690  2
|617>    2      0.172000       0.008301  2
|618>   p 2
|619>    1      0.860000      17.997720  2
|620>    2      0.172000      -0.032600  2
|621>   d 2
|622>    1      1.600000      -9.504310  2
|623>    2      0.320000      -0.151370  2
|624>   f 1
|625>    1      1.000000000    0.000000000 2
|626> end
|627> Ti>    4.00000000000    3.25401964873    5.92218707193    5.23594786729
|628> NewECP
|629> N_core 0
|630>   lmax f
|631>   s 2
|632>    1      0.860000       9.191690  2
|633>    2      0.172000       0.008301  2
|634>   p 2
|635>    1      0.860000      17.997720  2
|636>    2      0.172000      -0.032600  2
|637>   d 2
|638>    1      1.600000      -9.504310  2
|639>    2      0.320000      -0.151370  2
|640>   f 1
|641>    1      1.000000000    0.000000000 2
|642> end
|643> Ti>    4.00000000000    3.25401964873   -5.92218707193    5.23594786729
|644> NewECP
|645> N_core 0
|646>   lmax f
|647>   s 2
|648>    1      0.860000       9.191690  2
|649>    2      0.172000       0.008301  2
|650>   p 2
|651>    1      0.860000      17.997720  2
|652>    2      0.172000      -0.032600  2
|653>   d 2
|654>    1      1.600000      -9.504310  2
|655>    2      0.320000      -0.151370  2
|656>   f 1
|657>    1      1.000000000    0.000000000 2
|658> end
|659> Ti>    4.00000000000   -3.25401964873   -5.92218707193    5.23594786729
|660> NewECP
|661> N_core 0
|662>   lmax f
|663>   s 2
|664>    1      0.860000       9.191690  2
|665>    2      0.172000       0.008301  2
|666>   p 2
|667>    1      0.860000      17.997720  2
|668>    2      0.172000      -0.032600  2
|669>   d 2
|670>    1      1.600000      -9.504310  2
|671>    2      0.320000      -0.151370  2
|672>   f 1
|673>    1      1.000000000    0.000000000 2
|674> end
|675> Ti>    4.00000000000   -3.25401964873    2.96109353596   -7.78013072764
|676> NewECP
|677> N_core 0
|678>   lmax f
|679>   s 2
|680>    1      0.860000       9.191690  2
|681>    2      0.172000       0.008301  2
|682>   p 2
|683>    1      0.860000      17.997720  2
|684>    2      0.172000      -0.032600  2
|685>   d 2
|686>    1      1.600000      -9.504310  2
|687>    2      0.320000      -0.151370  2
|688>   f 1
|689>    1      1.000000000    0.000000000 2
|690> end
|691> Ti>    4.00000000000    3.25401964873    2.96109353596   -7.78013072764
|692> NewECP
|693> N_core 0
|694>   lmax f
|695>   s 2
|696>    1      0.860000       9.191690  2
|697>    2      0.172000       0.008301  2
|698>   p 2
|699>    1      0.860000      17.997720  2
|700>    2      0.172000      -0.032600  2
|701>   d 2
|702>    1      1.600000      -9.504310  2
|703>    2      0.320000      -0.151370  2
|704>   f 1
|705>    1      1.000000000    0.000000000 2
|706> end
|707> Ti>    4.00000000000    3.25401964873   -2.96109353596   -7.78013072764
|708> NewECP
|709> N_core 0
|710>   lmax f
|711>   s 2
|712>    1      0.860000       9.191690  2
|713>    2      0.172000       0.008301  2
|714>   p 2
|715>    1      0.860000      17.997720  2
|716>    2      0.172000      -0.032600  2
|717>   d 2
|718>    1      1.600000      -9.504310  2
|719>    2      0.320000      -0.151370  2
|720>   f 1
|721>    1      1.000000000    0.000000000 2
|722> end
|723> Ti>    4.00000000000   -3.25401964873   -2.96109353596   -7.78013072764
|724> NewECP
|725> N_core 0
|726>   lmax f
|727>   s 2
|728>    1      0.860000       9.191690  2
|729>    2      0.172000       0.008301  2
|730>   p 2
|731>    1      0.860000      17.997720  2
|732>    2      0.172000      -0.032600  2
|733>   d 2
|734>    1      1.600000      -9.504310  2
|735>    2      0.320000      -0.151370  2
|736>   f 1
|737>    1      1.000000000    0.000000000 2
|738> end
|739> Ti>    4.00000000000    0.00000000000    4.44164030394   -7.78013072764
|740> NewECP
|741> N_core 0
|742>   lmax f
|743>   s 2
|744>    1      0.860000       9.191690  2
|745>    2      0.172000       0.008301  2
|746>   p 2
|747>    1      0.860000      17.997720  2
|748>    2      0.172000      -0.032600  2
|749>   d 2
|750>    1      1.600000      -9.504310  2
|751>    2      0.320000      -0.151370  2
|752>   f 1
|753>    1      1.000000000    0.000000000 2
|754> end
|755> Ti>    4.00000000000    0.00000000000   -4.44164030394   -7.78013072764
|756> NewECP
|757> N_core 0
|758>   lmax f
|759>   s 2
|760>    1      0.860000       9.191690  2
|761>    2      0.172000       0.008301  2
|762>   p 2
|763>    1      0.860000      17.997720  2
|764>    2      0.172000      -0.032600  2
|765>   d 2
|766>    1      1.600000      -9.504310  2
|767>    2      0.320000      -0.151370  2
|768>   f 1
|769>    1      1.000000000    0.000000000 2
|770> end
|771> Ti>    4.00000000000    0.00000000000    2.96109353596    8.48996751602
|772> NewECP
|773> N_core 0
|774>   lmax f
|775>   s 2
|776>    1      0.860000       9.191690  2
|777>    2      0.172000       0.008301  2
|778>   p 2
|779>    1      0.860000      17.997720  2
|780>    2      0.172000      -0.032600  2
|781>   d 2
|782>    1      1.600000      -9.504310  2
|783>    2      0.320000      -0.151370  2
|784>   f 1
|785>    1      1.000000000    0.000000000 2
|786> end
|787> Ti>    4.00000000000    0.00000000000   -2.96109353596    8.48996751602
|788> NewECP
|789> N_core 0
|790>   lmax f
|791>   s 2
|792>    1      0.860000       9.191690  2
|793>    2      0.172000       0.008301  2
|794>   p 2
|795>    1      0.860000      17.997720  2
|796>    2      0.172000      -0.032600  2
|797>   d 2
|798>    1      1.600000      -9.504310  2
|799>    2      0.320000      -0.151370  2
|800>   f 1
|801>    1      1.000000000    0.000000000 2
|802> end
|803> Ti>    4.00000000000   -6.50803929747    5.92218707193    1.98192821856
|804> NewECP
|805> N_core 0
|806>   lmax f
|807>   s 2
|808>    1      0.860000       9.191690  2
|809>    2      0.172000       0.008301  2
|810>   p 2
|811>    1      0.860000      17.997720  2
|812>    2      0.172000      -0.032600  2
|813>   d 2
|814>    1      1.600000      -9.504310  2
|815>    2      0.320000      -0.151370  2
|816>   f 1
|817>    1      1.000000000    0.000000000 2
|818> end
|819> Ti>    4.00000000000    6.50803929747    5.92218707193    1.98192821856
|820> NewECP
|821> N_core 0
|822>   lmax f
|823>   s 2
|824>    1      0.860000       9.191690  2
|825>    2      0.172000       0.008301  2
|826>   p 2
|827>    1      0.860000      17.997720  2
|828>    2      0.172000      -0.032600  2
|829>   d 2
|830>    1      1.600000      -9.504310  2
|831>    2      0.320000      -0.151370  2
|832>   f 1
|833>    1      1.000000000    0.000000000 2
|834> end
|835> Ti>    4.00000000000    6.50803929747   -5.92218707193    1.98192821856
|836> NewECP
|837> N_core 0
|838>   lmax f
|839>   s 2
|840>    1      0.860000       9.191690  2
|841>    2      0.172000       0.008301  2
|842>   p 2
|843>    1      0.860000      17.997720  2
|844>    2      0.172000      -0.032600  2
|845>   d 2
|846>    1      1.600000      -9.504310  2
|847>    2      0.320000      -0.151370  2
|848>   f 1
|849>    1      1.000000000    0.000000000 2
|850> end
|851> Ti>    4.00000000000   -6.50803929747   -5.92218707193    1.98192821856
|852> NewECP
|853> N_core 0
|854>   lmax f
|855>   s 2
|856>    1      0.860000       9.191690  2
|857>    2      0.172000       0.008301  2
|858>   p 2
|859>    1      0.860000      17.997720  2
|860>    2      0.172000      -0.032600  2
|861>   d 2
|862>    1      1.600000      -9.504310  2
|863>    2      0.320000      -0.151370  2
|864>   f 1
|865>    1      1.000000000    0.000000000 2
|866> end
|867> Ti>    4.00000000000    0.00000000000    7.40273383991    5.23594786729
|868> NewECP
|869> N_core 0
|870>   lmax f
|871>   s 2
|872>    1      0.860000       9.191690  2
|873>    2      0.172000       0.008301  2
|874>   p 2
|875>    1      0.860000      17.997720  2
|876>    2      0.172000      -0.032600  2
|877>   d 2
|878>    1      1.600000      -9.504310  2
|879>    2      0.320000      -0.151370  2
|880>   f 1
|881>    1      1.000000000    0.000000000 2
|882> end
|883> Ti>    4.00000000000    0.00000000000   -7.40273383991    5.23594786729
|884> NewECP
|885> N_core 0
|886>   lmax f
|887>   s 2
|888>    1      0.860000       9.191690  2
|889>    2      0.172000       0.008301  2
|890>   p 2
|891>    1      0.860000      17.997720  2
|892>    2      0.172000      -0.032600  2
|893>   d 2
|894>    1      1.600000      -9.504310  2
|895>    2      0.320000      -0.151370  2
|896>   f 1
|897>    1      1.000000000    0.000000000 2
|898> end
|899> Ti>    4.00000000000    0.00000000000    8.88328060789    1.98192821856
|900> NewECP
|901> N_core 0
|902>   lmax f
|903>   s 2
|904>    1      0.860000       9.191690  2
|905>    2      0.172000       0.008301  2
|906>   p 2
|907>    1      0.860000      17.997720  2
|908>    2      0.172000      -0.032600  2
|909>   d 2
|910>    1      1.600000      -9.504310  2
|911>    2      0.320000      -0.151370  2
|912>   f 1
|913>    1      1.000000000    0.000000000 2
|914> end
|915> Ti>    4.00000000000    0.00000000000   -8.88328060789    1.98192821856
|916> NewECP
|917> N_core 0
|918>   lmax f
|919>   s 2
|920>    1      0.860000       9.191690  2
|921>    2      0.172000       0.008301  2
|922>   p 2
|923>    1      0.860000      17.997720  2
|924>    2      0.172000      -0.032600  2
|925>   d 2
|926>    1      1.600000      -9.504310  2
|927>    2      0.320000      -0.151370  2
|928>   f 1
|929>    1      1.000000000    0.000000000 2
|930> end
|931> Ti>    4.00000000000   -3.25401964873    1.48054676798    8.48996751602
|932> NewECP
|933> N_core 0
|934>   lmax f
|935>   s 2
|936>    1      0.860000       9.191690  2
|937>    2      0.172000       0.008301  2
|938>   p 2
|939>    1      0.860000      17.997720  2
|940>    2      0.172000      -0.032600  2
|941>   d 2
|942>    1      1.600000      -9.504310  2
|943>    2      0.320000      -0.151370  2
|944>   f 1
|945>    1      1.000000000    0.000000000 2
|946> end
|947> Ti>    4.00000000000    3.25401964873    1.48054676798    8.48996751602
|948> NewECP
|949> N_core 0
|950>   lmax f
|951>   s 2
|952>    1      0.860000       9.191690  2
|953>    2      0.172000       0.008301  2
|954>   p 2
|955>    1      0.860000      17.997720  2
|956>    2      0.172000      -0.032600  2
|957>   d 2
|958>    1      1.600000      -9.504310  2
|959>    2      0.320000      -0.151370  2
|960>   f 1
|961>    1      1.000000000    0.000000000 2
|962> end
|963> Ti>    4.00000000000    3.25401964873   -1.48054676798    8.48996751602
|964> NewECP
|965> N_core 0
|966>   lmax f
|967>   s 2
|968>    1      0.860000       9.191690  2
|969>    2      0.172000       0.008301  2
|970>   p 2
|971>    1      0.860000      17.997720  2
|972>    2      0.172000      -0.032600  2
|973>   d 2
|974>    1      1.600000      -9.504310  2
|975>    2      0.320000      -0.151370  2
|976>   f 1
|977>    1      1.000000000    0.000000000 2
|978> end
|979> Ti>    4.00000000000   -3.25401964873   -1.48054676798    8.48996751602
|980> NewECP
|981> N_core 0
|982>   lmax f
|983>   s 2
|984>    1      0.860000       9.191690  2
|985>    2      0.172000       0.008301  2
|986>   p 2
|987>    1      0.860000      17.997720  2
|988>    2      0.172000      -0.032600  2
|989>   d 2
|990>    1      1.600000      -9.504310  2
|991>    2      0.320000      -0.151370  2
|992>   f 1
|993>    1      1.000000000    0.000000000 2
|994> end
|995> Ti>    4.00000000000   -3.25401964873    7.40273383991   -4.52611107891
|996> NewECP
|997> N_core 0
|998>   lmax f
|999>   s 2
|1000>    1      0.860000       9.191690  2
|1001>    2      0.172000       0.008301  2
|1002>   p 2
|1003>    1      0.860000      17.997720  2
|1004>    2      0.172000      -0.032600  2
|1005>   d 2
|1006>    1      1.600000      -9.504310  2
|1007>    2      0.320000      -0.151370  2
|1008>   f 1
|1009>    1      1.000000000    0.000000000 2
|1010> end
|1011> Ti>    4.00000000000    3.25401964873    7.40273383991   -4.52611107891
|1012> NewECP
|1013> N_core 0
|1014>   lmax f
|1015>   s 2
|1016>    1      0.860000       9.191690  2
|1017>    2      0.172000       0.008301  2
|1018>   p 2
|1019>    1      0.860000      17.997720  2
|1020>    2      0.172000      -0.032600  2
|1021>   d 2
|1022>    1      1.600000      -9.504310  2
|1023>    2      0.320000      -0.151370  2
|1024>   f 1
|1025>    1      1.000000000    0.000000000 2
|1026> end
|1027> Ti>    4.00000000000    3.25401964873   -7.40273383991   -4.52611107891
|1028> NewECP
|1029> N_core 0
|1030>   lmax f
|1031>   s 2
|1032>    1      0.860000       9.191690  2
|1033>    2      0.172000       0.008301  2
|1034>   p 2
|1035>    1      0.860000      17.997720  2
|1036>    2      0.172000      -0.032600  2
|1037>   d 2
|1038>    1      1.600000      -9.504310  2
|1039>    2      0.320000      -0.151370  2
|1040>   f 1
|1041>    1      1.000000000    0.000000000 2
|1042> end
|1043> Ti>    4.00000000000   -3.25401964873   -7.40273383991   -4.52611107891
|1044> NewECP
|1045> N_core 0
|1046>   lmax f
|1047>   s 2
|1048>    1      0.860000       9.191690  2
|1049>    2      0.172000       0.008301  2
|1050>   p 2
|1051>    1      0.860000      17.997720  2
|1052>    2      0.172000      -0.032600  2
|1053>   d 2
|1054>    1      1.600000      -9.504310  2
|1055>    2      0.320000      -0.151370  2
|1056>   f 1
|1057>    1      1.000000000    0.000000000 2
|1058> end
|1059> Ti>    4.00000000000   -6.50803929747    4.44164030394    5.23594786729
|1060> NewECP
|1061> N_core 0
|1062>   lmax f
|1063>   s 2
|1064>    1      0.860000       9.191690  2
|1065>    2      0.172000       0.008301  2
|1066>   p 2
|1067>    1      0.860000      17.997720  2
|1068>    2      0.172000      -0.032600  2
|1069>   d 2
|1070>    1      1.600000      -9.504310  2
|1071>    2      0.320000      -0.151370  2
|1072>   f 1
|1073>    1      1.000000000    0.000000000 2
|1074> end
|1075> Ti>    4.00000000000    6.50803929747    4.44164030394    5.23594786729
|1076> NewECP
|1077> N_core 0
|1078>   lmax f
|1079>   s 2
|1080>    1      0.860000       9.191690  2
|1081>    2      0.172000       0.008301  2
|1082>   p 2
|1083>    1      0.860000      17.997720  2
|1084>    2      0.172000      -0.032600  2
|1085>   d 2
|1086>    1      1.600000      -9.504310  2
|1087>    2      0.320000      -0.151370  2
|1088>   f 1
|1089>    1      1.000000000    0.000000000 2
|1090> end
|1091> Ti>    4.00000000000    6.50803929747   -4.44164030394    5.23594786729
|1092> NewECP
|1093> N_core 0
|1094>   lmax f
|1095>   s 2
|1096>    1      0.860000       9.191690  2
|1097>    2      0.172000       0.008301  2
|1098>   p 2
|1099>    1      0.860000      17.997720  2
|1100>    2      0.172000      -0.032600  2
|1101>   d 2
|1102>    1      1.600000      -9.504310  2
|1103>    2      0.320000      -0.151370  2
|1104>   f 1
|1105>    1      1.000000000    0.000000000 2
|1106> end
|1107> Ti>    4.00000000000   -6.50803929747   -4.44164030394    5.23594786729
|1108> NewECP
|1109> N_core 0
|1110>   lmax f
|1111>   s 2
|1112>    1      0.860000       9.191690  2
|1113>    2      0.172000       0.008301  2
|1114>   p 2
|1115>    1      0.860000      17.997720  2
|1116>    2      0.172000      -0.032600  2
|1117>   d 2
|1118>    1      1.600000      -9.504310  2
|1119>    2      0.320000      -0.151370  2
|1120>   f 1
|1121>    1      1.000000000    0.000000000 2
|1122> end
|1123> Ti>    4.00000000000   -3.25401964873    8.88328060789   -1.27209143018
|1124> NewECP
|1125> N_core 0
|1126>   lmax f
|1127>   s 2
|1128>    1      0.860000       9.191690  2
|1129>    2      0.172000       0.008301  2
|1130>   p 2
|1131>    1      0.860000      17.997720  2
|1132>    2      0.172000      -0.032600  2
|1133>   d 2
|1134>    1      1.600000      -9.504310  2
|1135>    2      0.320000      -0.151370  2
|1136>   f 1
|1137>    1      1.000000000    0.000000000 2
|1138> end
|1139> Ti>    4.00000000000    3.25401964873    8.88328060789   -1.27209143018
|1140> NewECP
|1141> N_core 0
|1142>   lmax f
|1143>   s 2
|1144>    1      0.860000       9.191690  2
|1145>    2      0.172000       0.008301  2
|1146>   p 2
|1147>    1      0.860000      17.997720  2
|1148>    2      0.172000      -0.032600  2
|1149>   d 2
|1150>    1      1.600000      -9.504310  2
|1151>    2      0.320000      -0.151370  2
|1152>   f 1
|1153>    1      1.000000000    0.000000000 2
|1154> end
|1155> Ti>    4.00000000000    3.25401964873   -8.88328060789   -1.27209143018
|1156> NewECP
|1157> N_core 0
|1158>   lmax f
|1159>   s 2
|1160>    1      0.860000       9.191690  2
|1161>    2      0.172000       0.008301  2
|1162>   p 2
|1163>    1      0.860000      17.997720  2
|1164>    2      0.172000      -0.032600  2
|1165>   d 2
|1166>    1      1.600000      -9.504310  2
|1167>    2      0.320000      -0.151370  2
|1168>   f 1
|1169>    1      1.000000000    0.000000000 2
|1170> end
|1171> Ti>    4.00000000000   -3.25401964873   -8.88328060789   -1.27209143018
|1172> NewECP
|1173> N_core 0
|1174>   lmax f
|1175>   s 2
|1176>    1      0.860000       9.191690  2
|1177>    2      0.172000       0.008301  2
|1178>   p 2
|1179>    1      0.860000      17.997720  2
|1180>    2      0.172000      -0.032600  2
|1181>   d 2
|1182>    1      1.600000      -9.504310  2
|1183>    2      0.320000      -0.151370  2
|1184>   f 1
|1185>    1      1.000000000    0.000000000 2
|1186> end
|1187> Ti>    4.00000000000   -9.76205894620    0.00000000000   -1.27209143018
|1188> NewECP
|1189> N_core 0
|1190>   lmax f
|1191>   s 2
|1192>    1      0.860000       9.191690  2
|1193>    2      0.172000       0.008301  2
|1194>   p 2
|1195>    1      0.860000      17.997720  2
|1196>    2      0.172000      -0.032600  2
|1197>   d 2
|1198>    1      1.600000      -9.504310  2
|1199>    2      0.320000      -0.151370  2
|1200>   f 1
|1201>    1      1.000000000    0.000000000 2
|1202> end
|1203> Ti>    4.00000000000    9.76205894620    0.00000000000   -1.27209143018
|1204> NewECP
|1205> N_core 0
|1206>   lmax f
|1207>   s 2
|1208>    1      0.860000       9.191690  2
|1209>    2      0.172000       0.008301  2
|1210>   p 2
|1211>    1      0.860000      17.997720  2
|1212>    2      0.172000      -0.032600  2
|1213>   d 2
|1214>    1      1.600000      -9.504310  2
|1215>    2      0.320000      -0.151370  2
|1216>   f 1
|1217>    1      1.000000000    0.000000000 2
|1218> end
|1219> Ti>    4.00000000000   -6.50803929747    5.92218707193   -4.52611107891
|1220> NewECP
|1221> N_core 0
|1222>   lmax f
|1223>   s 2
|1224>    1      0.860000       9.191690  2
|1225>    2      0.172000       0.008301  2
|1226>   p 2
|1227>    1      0.860000      17.997720  2
|1228>    2      0.172000      -0.032600  2
|1229>   d 2
|1230>    1      1.600000      -9.504310  2
|1231>    2      0.320000      -0.151370  2
|1232>   f 1
|1233>    1      1.000000000    0.000000000 2
|1234> end
|1235> Ti>    4.00000000000    6.50803929747    5.92218707193   -4.52611107891
|1236> NewECP
|1237> N_core 0
|1238>   lmax f
|1239>   s 2
|1240>    1      0.860000       9.191690  2
|1241>    2      0.172000       0.008301  2
|1242>   p 2
|1243>    1      0.860000      17.997720  2
|1244>    2      0.172000      -0.032600  2
|1245>   d 2
|1246>    1      1.600000      -9.504310  2
|1247>    2      0.320000      -0.151370  2
|1248>   f 1
|1249>    1      1.000000000    0.000000000 2
|1250> end
|1251> Ti>    4.00000000000    6.50803929747   -5.92218707193   -4.52611107891
|1252> NewECP
|1253> N_core 0
|1254>   lmax f
|1255>   s 2
|1256>    1      0.860000       9.191690  2
|1257>    2      0.172000       0.008301  2
|1258>   p 2
|1259>    1      0.860000      17.997720  2
|1260>    2      0.172000      -0.032600  2
|1261>   d 2
|1262>    1      1.600000      -9.504310  2
|1263>    2      0.320000      -0.151370  2
|1264>   f 1
|1265>    1      1.000000000    0.000000000 2
|1266> end
|1267> Ti>    4.00000000000   -6.50803929747   -5.92218707193   -4.52611107891
|1268> NewECP
|1269> N_core 0
|1270>   lmax f
|1271>   s 2
|1272>    1      0.860000       9.191690  2
|1273>    2      0.172000       0.008301  2
|1274>   p 2
|1275>    1      0.860000      17.997720  2
|1276>    2      0.172000      -0.032600  2
|1277>   d 2
|1278>    1      1.600000      -9.504310  2
|1279>    2      0.320000      -0.151370  2
|1280>   f 1
|1281>    1      1.000000000    0.000000000 2
|1282> end
|1283> Ti>    4.00000000000   -6.50803929747    7.40273383991   -1.27209143018
|1284> NewECP
|1285> N_core 0
|1286>   lmax f
|1287>   s 2
|1288>    1      0.860000       9.191690  2
|1289>    2      0.172000       0.008301  2
|1290>   p 2
|1291>    1      0.860000      17.997720  2
|1292>    2      0.172000      -0.032600  2
|1293>   d 2
|1294>    1      1.600000      -9.504310  2
|1295>    2      0.320000      -0.151370  2
|1296>   f 1
|1297>    1      1.000000000    0.000000000 2
|1298> end
|1299> Ti>    4.00000000000    6.50803929747    7.40273383991   -1.27209143018
|1300> NewECP
|1301> N_core 0
|1302>   lmax f
|1303>   s 2
|1304>    1      0.860000       9.191690  2
|1305>    2      0.172000       0.008301  2
|1306>   p 2
|1307>    1      0.860000      17.997720  2
|1308>    2      0.172000      -0.032600  2
|1309>   d 2
|1310>    1      1.600000      -9.504310  2
|1311>    2      0.320000      -0.151370  2
|1312>   f 1
|1313>    1      1.000000000    0.000000000 2
|1314> end
|1315> Ti>    4.00000000000    6.50803929747   -7.40273383991   -1.27209143018
|1316> NewECP
|1317> N_core 0
|1318>   lmax f
|1319>   s 2
|1320>    1      0.860000       9.191690  2
|1321>    2      0.172000       0.008301  2
|1322>   p 2
|1323>    1      0.860000      17.997720  2
|1324>    2      0.172000      -0.032600  2
|1325>   d 2
|1326>    1      1.600000      -9.504310  2
|1327>    2      0.320000      -0.151370  2
|1328>   f 1
|1329>    1      1.000000000    0.000000000 2
|1330> end
|1331> Ti>    4.00000000000   -6.50803929747   -7.40273383991   -1.27209143018
|1332> NewECP
|1333> N_core 0
|1334>   lmax f
|1335>   s 2
|1336>    1      0.860000       9.191690  2
|1337>    2      0.172000       0.008301  2
|1338>   p 2
|1339>    1      0.860000      17.997720  2
|1340>    2      0.172000      -0.032600  2
|1341>   d 2
|1342>    1      1.600000      -9.504310  2
|1343>    2      0.320000      -0.151370  2
|1344>   f 1
|1345>    1      1.000000000    0.000000000 2
|1346> end
|1347> Ti>    4.00000000000    0.00000000000    8.88328060789   -4.52611107891
|1348> NewECP
|1349> N_core 0
|1350>   lmax f
|1351>   s 2
|1352>    1      0.860000       9.191690  2
|1353>    2      0.172000       0.008301  2
|1354>   p 2
|1355>    1      0.860000      17.997720  2
|1356>    2      0.172000      -0.032600  2
|1357>   d 2
|1358>    1      1.600000      -9.504310  2
|1359>    2      0.320000      -0.151370  2
|1360>   f 1
|1361>    1      1.000000000    0.000000000 2
|1362> end
|1363> Ti>    4.00000000000    0.00000000000   -8.88328060789   -4.52611107891
|1364> NewECP
|1365> N_core 0
|1366>   lmax f
|1367>   s 2
|1368>    1      0.860000       9.191690  2
|1369>    2      0.172000       0.008301  2
|1370>   p 2
|1371>    1      0.860000      17.997720  2
|1372>    2      0.172000      -0.032600  2
|1373>   d 2
|1374>    1      1.600000      -9.504310  2
|1375>    2      0.320000      -0.151370  2
|1376>   f 1
|1377>    1      1.000000000    0.000000000 2
|1378> end
|1379> Ti>    4.00000000000   -9.76205894620    1.48054676798    1.98192821856
|1380> NewECP
|1381> N_core 0
|1382>   lmax f
|1383>   s 2
|1384>    1      0.860000       9.191690  2
|1385>    2      0.172000       0.008301  2
|1386>   p 2
|1387>    1      0.860000      17.997720  2
|1388>    2      0.172000      -0.032600  2
|1389>   d 2
|1390>    1      1.600000      -9.504310  2
|1391>    2      0.320000      -0.151370  2
|1392>   f 1
|1393>    1      1.000000000    0.000000000 2
|1394> end
|1395> Ti>    4.00000000000    9.76205894620    1.48054676798    1.98192821856
|1396> NewECP
|1397> N_core 0
|1398>   lmax f
|1399>   s 2
|1400>    1      0.860000       9.191690  2
|1401>    2      0.172000       0.008301  2
|1402>   p 2
|1403>    1      0.860000      17.997720  2
|1404>    2      0.172000      -0.032600  2
|1405>   d 2
|1406>    1      1.600000      -9.504310  2
|1407>    2      0.320000      -0.151370  2
|1408>   f 1
|1409>    1      1.000000000    0.000000000 2
|1410> end
|1411> Ti>    4.00000000000    9.76205894620   -1.48054676798    1.98192821856
|1412> NewECP
|1413> N_core 0
|1414>   lmax f
|1415>   s 2
|1416>    1      0.860000       9.191690  2
|1417>    2      0.172000       0.008301  2
|1418>   p 2
|1419>    1      0.860000      17.997720  2
|1420>    2      0.172000      -0.032600  2
|1421>   d 2
|1422>    1      1.600000      -9.504310  2
|1423>    2      0.320000      -0.151370  2
|1424>   f 1
|1425>    1      1.000000000    0.000000000 2
|1426> end
|1427> Ti>    4.00000000000   -9.76205894620   -1.48054676798    1.98192821856
|1428> NewECP
|1429> N_core 0
|1430>   lmax f
|1431>   s 2
|1432>    1      0.860000       9.191690  2
|1433>    2      0.172000       0.008301  2
|1434>   p 2
|1435>    1      0.860000      17.997720  2
|1436>    2      0.172000      -0.032600  2
|1437>   d 2
|1438>    1      1.600000      -9.504310  2
|1439>    2      0.320000      -0.151370  2
|1440>   f 1
|1441>    1      1.000000000    0.000000000 2
|1442> end
|1443> Ti>    4.00000000000   -3.25401964873    4.44164030394    8.48996751602
|1444> NewECP
|1445> N_core 0
|1446>   lmax f
|1447>   s 2
|1448>    1      0.860000       9.191690  2
|1449>    2      0.172000       0.008301  2
|1450>   p 2
|1451>    1      0.860000      17.997720  2
|1452>    2      0.172000      -0.032600  2
|1453>   d 2
|1454>    1      1.600000      -9.504310  2
|1455>    2      0.320000      -0.151370  2
|1456>   f 1
|1457>    1      1.000000000    0.000000000 2
|1458> end
|1459> Ti>    4.00000000000    3.25401964873    4.44164030394    8.48996751602
|1460> NewECP
|1461> N_core 0
|1462>   lmax f
|1463>   s 2
|1464>    1      0.860000       9.191690  2
|1465>    2      0.172000       0.008301  2
|1466>   p 2
|1467>    1      0.860000      17.997720  2
|1468>    2      0.172000      -0.032600  2
|1469>   d 2
|1470>    1      1.600000      -9.504310  2
|1471>    2      0.320000      -0.151370  2
|1472>   f 1
|1473>    1      1.000000000    0.000000000 2
|1474> end
|1475> Ti>    4.00000000000    3.25401964873   -4.44164030394    8.48996751602
|1476> NewECP
|1477> N_core 0
|1478>   lmax f
|1479>   s 2
|1480>    1      0.860000       9.191690  2
|1481>    2      0.172000       0.008301  2
|1482>   p 2
|1483>    1      0.860000      17.997720  2
|1484>    2      0.172000      -0.032600  2
|1485>   d 2
|1486>    1      1.600000      -9.504310  2
|1487>    2      0.320000      -0.151370  2
|1488>   f 1
|1489>    1      1.000000000    0.000000000 2
|1490> end
|1491> Ti>    4.00000000000   -3.25401964873   -4.44164030394    8.48996751602
|1492> NewECP
|1493> N_core 0
|1494>   lmax f
|1495>   s 2
|1496>    1      0.860000       9.191690  2
|1497>    2      0.172000       0.008301  2
|1498>   p 2
|1499>    1      0.860000      17.997720  2
|1500>    2      0.172000      -0.032600  2
|1501>   d 2
|1502>    1      1.600000      -9.504310  2
|1503>    2      0.320000      -0.151370  2
|1504>   f 1
|1505>    1      1.000000000    0.000000000 2
|1506> end
|1507> Ti>    4.00000000000   -6.50803929747    1.48054676798   -7.78013072764
|1508> NewECP
|1509> N_core 0
|1510>   lmax f
|1511>   s 2
|1512>    1      0.860000       9.191690  2
|1513>    2      0.172000       0.008301  2
|1514>   p 2
|1515>    1      0.860000      17.997720  2
|1516>    2      0.172000      -0.032600  2
|1517>   d 2
|1518>    1      1.600000      -9.504310  2
|1519>    2      0.320000      -0.151370  2
|1520>   f 1
|1521>    1      1.000000000    0.000000000 2
|1522> end
|1523> Ti>    4.00000000000    6.50803929747    1.48054676798   -7.78013072764
|1524> NewECP
|1525> N_core 0
|1526>   lmax f
|1527>   s 2
|1528>    1      0.860000       9.191690  2
|1529>    2      0.172000       0.008301  2
|1530>   p 2
|1531>    1      0.860000      17.997720  2
|1532>    2      0.172000      -0.032600  2
|1533>   d 2
|1534>    1      1.600000      -9.504310  2
|1535>    2      0.320000      -0.151370  2
|1536>   f 1
|1537>    1      1.000000000    0.000000000 2
|1538> end
|1539> Ti>    4.00000000000    6.50803929747   -1.48054676798   -7.78013072764
|1540> NewECP
|1541> N_core 0
|1542>   lmax f
|1543>   s 2
|1544>    1      0.860000       9.191690  2
|1545>    2      0.172000       0.008301  2
|1546>   p 2
|1547>    1      0.860000      17.997720  2
|1548>    2      0.172000      -0.032600  2
|1549>   d 2
|1550>    1      1.600000      -9.504310  2
|1551>    2      0.320000      -0.151370  2
|1552>   f 1
|1553>    1      1.000000000    0.000000000 2
|1554> end
|1555> Ti>    4.00000000000   -6.50803929747   -1.48054676798   -7.78013072764
|1556> NewECP
|1557> N_core 0
|1558>   lmax f
|1559>   s 2
|1560>    1      0.860000       9.191690  2
|1561>    2      0.172000       0.008301  2
|1562>   p 2
|1563>    1      0.860000      17.997720  2
|1564>    2      0.172000      -0.032600  2
|1565>   d 2
|1566>    1      1.600000      -9.504310  2
|1567>    2      0.320000      -0.151370  2
|1568>   f 1
|1569>    1      1.000000000    0.000000000 2
|1570> end
|1571> Ti>    4.00000000000   -9.76205894620    2.96109353596   -1.27209143018
|1572> NewECP
|1573> N_core 0
|1574>   lmax f
|1575>   s 2
|1576>    1      0.860000       9.191690  2
|1577>    2      0.172000       0.008301  2
|1578>   p 2
|1579>    1      0.860000      17.997720  2
|1580>    2      0.172000      -0.032600  2
|1581>   d 2
|1582>    1      1.600000      -9.504310  2
|1583>    2      0.320000      -0.151370  2
|1584>   f 1
|1585>    1      1.000000000    0.000000000 2
|1586> end
|1587> Ti>    4.00000000000    9.76205894620    2.96109353596   -1.27209143018
|1588> NewECP
|1589> N_core 0
|1590>   lmax f
|1591>   s 2
|1592>    1      0.860000       9.191690  2
|1593>    2      0.172000       0.008301  2
|1594>   p 2
|1595>    1      0.860000      17.997720  2
|1596>    2      0.172000      -0.032600  2
|1597>   d 2
|1598>    1      1.600000      -9.504310  2
|1599>    2      0.320000      -0.151370  2
|1600>   f 1
|1601>    1      1.000000000    0.000000000 2
|1602> end
|1603> Ti>    4.00000000000    9.76205894620   -2.96109353596   -1.27209143018
|1604> NewECP
|1605> N_core 0
|1606>   lmax f
|1607>   s 2
|1608>    1      0.860000       9.191690  2
|1609>    2      0.172000       0.008301  2
|1610>   p 2
|1611>    1      0.860000      17.997720  2
|1612>    2      0.172000      -0.032600  2
|1613>   d 2
|1614>    1      1.600000      -9.504310  2
|1615>    2      0.320000      -0.151370  2
|1616>   f 1
|1617>    1      1.000000000    0.000000000 2
|1618> end
|1619> Ti>    4.00000000000   -9.76205894620   -2.96109353596   -1.27209143018
|1620> NewECP
|1621> N_core 0
|1622>   lmax f
|1623>   s 2
|1624>    1      0.860000       9.191690  2
|1625>    2      0.172000       0.008301  2
|1626>   p 2
|1627>    1      0.860000      17.997720  2
|1628>    2      0.172000      -0.032600  2
|1629>   d 2
|1630>    1      1.600000      -9.504310  2
|1631>    2      0.320000      -0.151370  2
|1632>   f 1
|1633>    1      1.000000000    0.000000000 2
|1634> end
|1635> Ti>    4.00000000000   -3.25401964873    5.92218707193   -7.78013072764
|1636> NewECP
|1637> N_core 0
|1638>   lmax f
|1639>   s 2
|1640>    1      0.860000       9.191690  2
|1641>    2      0.172000       0.008301  2
|1642>   p 2
|1643>    1      0.860000      17.997720  2
|1644>    2      0.172000      -0.032600  2
|1645>   d 2
|1646>    1      1.600000      -9.504310  2
|1647>    2      0.320000      -0.151370  2
|1648>   f 1
|1649>    1      1.000000000    0.000000000 2
|1650> end
|1651> Ti>    4.00000000000    3.25401964873    5.92218707193   -7.78013072764
|1652> NewECP
|1653> N_core 0
|1654>   lmax f
|1655>   s 2
|1656>    1      0.860000       9.191690  2
|1657>    2      0.172000       0.008301  2
|1658>   p 2
|1659>    1      0.860000      17.997720  2
|1660>    2      0.172000      -0.032600  2
|1661>   d 2
|1662>    1      1.600000      -9.504310  2
|1663>    2      0.320000      -0.151370  2
|1664>   f 1
|1665>    1      1.000000000    0.000000000 2
|1666> end
|1667> Ti>    4.00000000000    3.25401964873   -5.92218707193   -7.78013072764
|1668> NewECP
|1669> N_core 0
|1670>   lmax f
|1671>   s 2
|1672>    1      0.860000       9.191690  2
|1673>    2      0.172000       0.008301  2
|1674>   p 2
|1675>    1      0.860000      17.997720  2
|1676>    2      0.172000      -0.032600  2
|1677>   d 2
|1678>    1      1.600000      -9.504310  2
|1679>    2      0.320000      -0.151370  2
|1680>   f 1
|1681>    1      1.000000000    0.000000000 2
|1682> end
|1683> Ti>    4.00000000000   -3.25401964873   -5.92218707193   -7.78013072764
|1684> NewECP
|1685> N_core 0
|1686>   lmax f
|1687>   s 2
|1688>    1      0.860000       9.191690  2
|1689>    2      0.172000       0.008301  2
|1690>   p 2
|1691>    1      0.860000      17.997720  2
|1692>    2      0.172000      -0.032600  2
|1693>   d 2
|1694>    1      1.600000      -9.504310  2
|1695>    2      0.320000      -0.151370  2
|1696>   f 1
|1697>    1      1.000000000    0.000000000 2
|1698> end
|1699> Ti>    4.00000000000    0.00000000000    5.92218707193    8.48996751602
|1700> NewECP
|1701> N_core 0
|1702>   lmax f
|1703>   s 2
|1704>    1      0.860000       9.191690  2
|1705>    2      0.172000       0.008301  2
|1706>   p 2
|1707>    1      0.860000      17.997720  2
|1708>    2      0.172000      -0.032600  2
|1709>   d 2
|1710>    1      1.600000      -9.504310  2
|1711>    2      0.320000      -0.151370  2
|1712>   f 1
|1713>    1      1.000000000    0.000000000 2
|1714> end
|1715> Ti>    4.00000000000    0.00000000000   -5.92218707193    8.48996751602
|1716> NewECP
|1717> N_core 0
|1718>   lmax f
|1719>   s 2
|1720>    1      0.860000       9.191690  2
|1721>    2      0.172000       0.008301  2
|1722>   p 2
|1723>    1      0.860000      17.997720  2
|1724>    2      0.172000      -0.032600  2
|1725>   d 2
|1726>    1      1.600000      -9.504310  2
|1727>    2      0.320000      -0.151370  2
|1728>   f 1
|1729>    1      1.000000000    0.000000000 2
|1730> end
|1731> Ti>    4.00000000000    0.00000000000   10.36382737587   -1.27209143018
|1732> NewECP
|1733> N_core 0
|1734>   lmax f
|1735>   s 2
|1736>    1      0.860000       9.191690  2
|1737>    2      0.172000       0.008301  2
|1738>   p 2
|1739>    1      0.860000      17.997720  2
|1740>    2      0.172000      -0.032600  2
|1741>   d 2
|1742>    1      1.600000      -9.504310  2
|1743>    2      0.320000      -0.151370  2
|1744>   f 1
|1745>    1      1.000000000    0.000000000 2
|1746> end
|1747> Ti>    4.00000000000    0.00000000000  -10.36382737587   -1.27209143018
|1748> NewECP
|1749> N_core 0
|1750>   lmax f
|1751>   s 2
|1752>    1      0.860000       9.191690  2
|1753>    2      0.172000       0.008301  2
|1754>   p 2
|1755>    1      0.860000      17.997720  2
|1756>    2      0.172000      -0.032600  2
|1757>   d 2
|1758>    1      1.600000      -9.504310  2
|1759>    2      0.320000      -0.151370  2
|1760>   f 1
|1761>    1      1.000000000    0.000000000 2
|1762> end
|1763> Ti>    4.00000000000   -6.50803929747    0.00000000000    8.48996751602
|1764> NewECP
|1765> N_core 0
|1766>   lmax f
|1767>   s 2
|1768>    1      0.860000       9.191690  2
|1769>    2      0.172000       0.008301  2
|1770>   p 2
|1771>    1      0.860000      17.997720  2
|1772>    2      0.172000      -0.032600  2
|1773>   d 2
|1774>    1      1.600000      -9.504310  2
|1775>    2      0.320000      -0.151370  2
|1776>   f 1
|1777>    1      1.000000000    0.000000000 2
|1778> end
|1779> Ti>    4.00000000000    6.50803929747    0.00000000000    8.48996751602
|1780> NewECP
|1781> N_core 0
|1782>   lmax f
|1783>   s 2
|1784>    1      0.860000       9.191690  2
|1785>    2      0.172000       0.008301  2
|1786>   p 2
|1787>    1      0.860000      17.997720  2
|1788>    2      0.172000      -0.032600  2
|1789>   d 2
|1790>    1      1.600000      -9.504310  2
|1791>    2      0.320000      -0.151370  2
|1792>   f 1
|1793>    1      1.000000000    0.000000000 2
|1794> end
|1795> Ti>    4.00000000000    0.00000000000    7.40273383991   -7.78013072764
|1796> NewECP
|1797> N_core 0
|1798>   lmax f
|1799>   s 2
|1800>    1      0.860000       9.191690  2
|1801>    2      0.172000       0.008301  2
|1802>   p 2
|1803>    1      0.860000      17.997720  2
|1804>    2      0.172000      -0.032600  2
|1805>   d 2
|1806>    1      1.600000      -9.504310  2
|1807>    2      0.320000      -0.151370  2
|1808>   f 1
|1809>    1      1.000000000    0.000000000 2
|1810> end
|1811> Ti>    4.00000000000    0.00000000000   -7.40273383991   -7.78013072764
|1812> NewECP
|1813> N_core 0
|1814>   lmax f
|1815>   s 2
|1816>    1      0.860000       9.191690  2
|1817>    2      0.172000       0.008301  2
|1818>   p 2
|1819>    1      0.860000      17.997720  2
|1820>    2      0.172000      -0.032600  2
|1821>   d 2
|1822>    1      1.600000      -9.504310  2
|1823>    2      0.320000      -0.151370  2
|1824>   f 1
|1825>    1      1.000000000    0.000000000 2
|1826> end
|1827> Ti>    4.00000000000   -3.25401964873    8.88328060789    5.23594786729
|1828> NewECP
|1829> N_core 0
|1830>   lmax f
|1831>   s 2
|1832>    1      0.860000       9.191690  2
|1833>    2      0.172000       0.008301  2
|1834>   p 2
|1835>    1      0.860000      17.997720  2
|1836>    2      0.172000      -0.032600  2
|1837>   d 2
|1838>    1      1.600000      -9.504310  2
|1839>    2      0.320000      -0.151370  2
|1840>   f 1
|1841>    1      1.000000000    0.000000000 2
|1842> end
|1843> Ti>    4.00000000000    3.25401964873    8.88328060789    5.23594786729
|1844> NewECP
|1845> N_core 0
|1846>   lmax f
|1847>   s 2
|1848>    1      0.860000       9.191690  2
|1849>    2      0.172000       0.008301  2
|1850>   p 2
|1851>    1      0.860000      17.997720  2
|1852>    2      0.172000      -0.032600  2
|1853>   d 2
|1854>    1      1.600000      -9.504310  2
|1855>    2      0.320000      -0.151370  2
|1856>   f 1
|1857>    1      1.000000000    0.000000000 2
|1858> end
|1859> Ti>    4.00000000000    3.25401964873   -8.88328060789    5.23594786729
|1860> NewECP
|1861> N_core 0
|1862>   lmax f
|1863>   s 2
|1864>    1      0.860000       9.191690  2
|1865>    2      0.172000       0.008301  2
|1866>   p 2
|1867>    1      0.860000      17.997720  2
|1868>    2      0.172000      -0.032600  2
|1869>   d 2
|1870>    1      1.600000      -9.504310  2
|1871>    2      0.320000      -0.151370  2
|1872>   f 1
|1873>    1      1.000000000    0.000000000 2
|1874> end
|1875> Ti>    4.00000000000   -3.25401964873   -8.88328060789    5.23594786729
|1876> NewECP
|1877> N_core 0
|1878>   lmax f
|1879>   s 2
|1880>    1      0.860000       9.191690  2
|1881>    2      0.172000       0.008301  2
|1882>   p 2
|1883>    1      0.860000      17.997720  2
|1884>    2      0.172000      -0.032600  2
|1885>   d 2
|1886>    1      1.600000      -9.504310  2
|1887>    2      0.320000      -0.151370  2
|1888>   f 1
|1889>    1      1.000000000    0.000000000 2
|1890> end
|1891> Ti>    4.00000000000   -9.76205894620    1.48054676798   -4.52611107891
|1892> NewECP
|1893> N_core 0
|1894>   lmax f
|1895>   s 2
|1896>    1      0.860000       9.191690  2
|1897>    2      0.172000       0.008301  2
|1898>   p 2
|1899>    1      0.860000      17.997720  2
|1900>    2      0.172000      -0.032600  2
|1901>   d 2
|1902>    1      1.600000      -9.504310  2
|1903>    2      0.320000      -0.151370  2
|1904>   f 1
|1905>    1      1.000000000    0.000000000 2
|1906> end
|1907> Ti>    4.00000000000    9.76205894620    1.48054676798   -4.52611107891
|1908> NewECP
|1909> N_core 0
|1910>   lmax f
|1911>   s 2
|1912>    1      0.860000       9.191690  2
|1913>    2      0.172000       0.008301  2
|1914>   p 2
|1915>    1      0.860000      17.997720  2
|1916>    2      0.172000      -0.032600  2
|1917>   d 2
|1918>    1      1.600000      -9.504310  2
|1919>    2      0.320000      -0.151370  2
|1920>   f 1
|1921>    1      1.000000000    0.000000000 2
|1922> end
|1923> Ti>    4.00000000000    9.76205894620   -1.48054676798   -4.52611107891
|1924> NewECP
|1925> N_core 0
|1926>   lmax f
|1927>   s 2
|1928>    1      0.860000       9.191690  2
|1929>    2      0.172000       0.008301  2
|1930>   p 2
|1931>    1      0.860000      17.997720  2
|1932>    2      0.172000      -0.032600  2
|1933>   d 2
|1934>    1      1.600000      -9.504310  2
|1935>    2      0.320000      -0.151370  2
|1936>   f 1
|1937>    1      1.000000000    0.000000000 2
|1938> end
|1939> Ti>    4.00000000000   -9.76205894620   -1.48054676798   -4.52611107891
|1940> NewECP
|1941> N_core 0
|1942>   lmax f
|1943>   s 2
|1944>    1      0.860000       9.191690  2
|1945>    2      0.172000       0.008301  2
|1946>   p 2
|1947>    1      0.860000      17.997720  2
|1948>    2      0.172000      -0.032600  2
|1949>   d 2
|1950>    1      1.600000      -9.504310  2
|1951>    2      0.320000      -0.151370  2
|1952>   f 1
|1953>    1      1.000000000    0.000000000 2
|1954> end
|1955> Ti>    4.00000000000   -9.76205894620    4.44164030394    1.98192821856
|1956> NewECP
|1957> N_core 0
|1958>   lmax f
|1959>   s 2
|1960>    1      0.860000       9.191690  2
|1961>    2      0.172000       0.008301  2
|1962>   p 2
|1963>    1      0.860000      17.997720  2
|1964>    2      0.172000      -0.032600  2
|1965>   d 2
|1966>    1      1.600000      -9.504310  2
|1967>    2      0.320000      -0.151370  2
|1968>   f 1
|1969>    1      1.000000000    0.000000000 2
|1970> end
|1971> Ti>    4.00000000000    9.76205894620    4.44164030394    1.98192821856
|1972> NewECP
|1973> N_core 0
|1974>   lmax f
|1975>   s 2
|1976>    1      0.860000       9.191690  2
|1977>    2      0.172000       0.008301  2
|1978>   p 2
|1979>    1      0.860000      17.997720  2
|1980>    2      0.172000      -0.032600  2
|1981>   d 2
|1982>    1      1.600000      -9.504310  2
|1983>    2      0.320000      -0.151370  2
|1984>   f 1
|1985>    1      1.000000000    0.000000000 2
|1986> end
|1987> Ti>    4.00000000000    9.76205894620   -4.44164030394    1.98192821856
|1988> NewECP
|1989> N_core 0
|1990>   lmax f
|1991>   s 2
|1992>    1      0.860000       9.191690  2
|1993>    2      0.172000       0.008301  2
|1994>   p 2
|1995>    1      0.860000      17.997720  2
|1996>    2      0.172000      -0.032600  2
|1997>   d 2
|1998>    1      1.600000      -9.504310  2
|1999>    2      0.320000      -0.151370  2
|2000>   f 1
|2001>    1      1.000000000    0.000000000 2
|2002> end
|2003> Ti>    4.00000000000   -9.76205894620   -4.44164030394    1.98192821856
|2004> NewECP
|2005> N_core 0
|2006>   lmax f
|2007>   s 2
|2008>    1      0.860000       9.191690  2
|2009>    2      0.172000       0.008301  2
|2010>   p 2
|2011>    1      0.860000      17.997720  2
|2012>    2      0.172000      -0.032600  2
|2013>   d 2
|2014>    1      1.600000      -9.504310  2
|2015>    2      0.320000      -0.151370  2
|2016>   f 1
|2017>    1      1.000000000    0.000000000 2
|2018> end
|2019> Ti>    4.00000000000    0.00000000000    0.00000000000  -11.03415037637
|2020> NewECP
|2021> N_core 0
|2022>   lmax f
|2023>   s 2
|2024>    1      0.860000       9.191690  2
|2025>    2      0.172000       0.008301  2
|2026>   p 2
|2027>    1      0.860000      17.997720  2
|2028>    2      0.172000      -0.032600  2
|2029>   d 2
|2030>    1      1.600000      -9.504310  2
|2031>    2      0.320000      -0.151370  2
[...]
378 Q      0.0000     4.0000     4.0000     0.0000     0.0000     0.0000
379 Q      0.0000     4.0000     4.0000     0.0000     0.0000     0.0000
380 Q      0.0000     4.0000     4.0000     0.0000     0.0000     0.0000
381 Q      0.0000     4.0000     4.0000     0.0000     0.0000     0.0000
382 Q      0.0000     4.0000     4.0000     0.0000     0.0000     0.0000
383 Q      0.0000     4.0000     4.0000     0.0000     0.0000     0.0000
384 Q      0.0000     4.0000     4.0000     0.0000     0.0000     0.0000
385 Q      0.0000     4.0000     4.0000     0.0000     0.0000     0.0000
386 Q      0.0000     4.0000     4.0000     0.0000     0.0000     0.0000
387 Q      0.0000     4.0000     4.0000     0.0000     0.0000     0.0000
388 Q      0.0000     4.0000     4.0000     0.0000     0.0000     0.0000
389 Q      0.0000     4.0000     4.0000     0.0000     0.0000     0.0000
390 Q      0.0000     4.0000     4.0000     0.0000     0.0000     0.0000
391 Q      0.0000     4.0000     4.0000     0.0000     0.0000     0.0000
392 Q      0.0000     4.0000     4.0000     0.0000     0.0000     0.0000
393 Q      0.0000     4.0000     4.0000     0.0000     0.0000     0.0000
394 Q      0.0000     4.0000     4.0000     0.0000     0.0000     0.0000
395 Q      0.0000     4.0000     4.0000     0.0000     0.0000     0.0000
396 Q      0.0000     4.0000     4.0000     0.0000     0.0000     0.0000
397 Q      0.0000     4.0000     4.0000     0.0000     0.0000     0.0000
398 Q      0.0000     4.0000     4.0000     0.0000     0.0000     0.0000
399 Q      0.0000     4.0000     4.0000     0.0000     0.0000     0.0000
400 Q      0.0000     4.0000     4.0000     0.0000     0.0000     0.0000
401 Q      0.0000     4.0000     4.0000     0.0000     0.0000     0.0000
402 Q      0.0000     4.0000     4.0000     0.0000     0.0000     0.0000
403 Q      0.0000     4.0000     4.0000     0.0000     0.0000     0.0000
404 Q      0.0000     4.0000     4.0000     0.0000     0.0000     0.0000
405 Q      0.0000     4.0000     4.0000     0.0000     0.0000     0.0000
406 Q      0.0000     4.0000     4.0000     0.0000     0.0000     0.0000
407 Q      0.0000     4.0000     4.0000     0.0000     0.0000     0.0000
408 Q      0.0000     4.0000     4.0000     0.0000     0.0000     0.0000
409 Q      0.0000     4.0000     4.0000     0.0000     0.0000     0.0000
410 Q      0.0000     4.0000     4.0000     0.0000     0.0000     0.0000
411 Q      0.0000     4.0000     4.0000     0.0000     0.0000     0.0000
412 Q      0.0000     4.0000     4.0000     0.0000     0.0000     0.0000
413 Q      0.0000     4.0000     4.0000     0.0000     0.0000     0.0000
414 Q      0.0000     4.0000     4.0000     0.0000     0.0000     0.0000
415 Q      0.0000     4.0000     4.0000     0.0000     0.0000     0.0000
416 Q      0.0000     4.0000     4.0000     0.0000     0.0000     0.0000
417 Q      0.0000     4.0000     4.0000     0.0000     0.0000     0.0000
418 Q      0.0000     4.0000     4.0000     0.0000     0.0000     0.0000
419 Q      0.0000     4.0000     4.0000     0.0000     0.0000     0.0000
420 Q      0.0000     4.0000     4.0000     0.0000     0.0000     0.0000
421 Q      0.0000     4.0000     4.0000     0.0000     0.0000     0.0000
422 Q      0.0000     4.0000     4.0000     0.0000     0.0000     0.0000
423 Q      0.0000     4.0000     4.0000     0.0000     0.0000     0.0000
424 Q      0.0000     4.0000     4.0000     0.0000     0.0000     0.0000
425 Q      0.0000     4.0000     4.0000     0.0000     0.0000     0.0000
426 Q      0.0000     4.0000     4.0000     0.0000     0.0000     0.0000
427 Q      0.0000     4.0000     4.0000     0.0000     0.0000     0.0000
428 Q      0.0000     4.0000     4.0000     0.0000     0.0000     0.0000
429 Q      0.0000     4.0000     4.0000     0.0000     0.0000     0.0000
430 Q      0.0000     4.0000     4.0000     0.0000     0.0000     0.0000
431 Q      0.0000     4.0000     4.0000     0.0000     0.0000     0.0000
432 Q      0.0000     4.0000     4.0000     0.0000     0.0000     0.0000
433 Q      0.0000     4.0000     4.0000     0.0000     0.0000     0.0000
434 Q      0.0000     4.0000     4.0000     0.0000     0.0000     0.0000
435 Q      0.0000     4.0000     4.0000     0.0000     0.0000     0.0000
436 Q      0.0000     4.0000     4.0000     0.0000     0.0000     0.0000
437 Q      0.0000     4.0000     4.0000     0.0000     0.0000     0.0000
438 Q      0.0000     4.0000     4.0000     0.0000     0.0000     0.0000
439 Q      0.0000     4.0000     4.0000     0.0000     0.0000     0.0000
440 Q      0.0000     4.0000     4.0000     0.0000     0.0000     0.0000
441 Q      0.0000     4.0000     4.0000     0.0000     0.0000     0.0000
442 Q      0.0000     4.0000     4.0000     0.0000     0.0000     0.0000
443 Q      0.0000     4.0000     4.0000     0.0000     0.0000     0.0000
444 Q      0.0000     4.0000     4.0000     0.0000     0.0000     0.0000
445 Q      0.0000     4.0000     4.0000     0.0000     0.0000     0.0000
446 Q      0.0000     4.0000     4.0000     0.0000     0.0000     0.0000
447 Q      0.0000     4.0000     4.0000     0.0000     0.0000     0.0000
448 Q      0.0000     4.0000     4.0000     0.0000     0.0000     0.0000
449 Q      0.0000     4.0000     4.0000     0.0000     0.0000     0.0000
450 Q      0.0000     4.0000     4.0000     0.0000     0.0000     0.0000
451 Q      0.0000     4.0000     4.0000     0.0000     0.0000     0.0000
452 Q      0.0000     4.0000     4.0000     0.0000     0.0000     0.0000
453 Q      0.0000     4.0000     4.0000     0.0000     0.0000     0.0000
454 Q      0.0000     4.0000     4.0000     0.0000     0.0000     0.0000
455 Q      0.0000     4.0000     4.0000     0.0000     0.0000     0.0000
456 Q      0.0000     4.0000     4.0000     0.0000     0.0000     0.0000
457 Q      0.0000     4.0000     4.0000     0.0000     0.0000     0.0000
458 Q      0.0000     4.0000     4.0000     0.0000     0.0000     0.0000
459 Q      0.0000     4.0000     4.0000     0.0000     0.0000     0.0000
460 Q      0.0000     4.0000     4.0000     0.0000     0.0000     0.0000
461 Q      0.0000     4.0000     4.0000     0.0000     0.0000     0.0000
462 Q      0.0000     4.0000     4.0000     0.0000     0.0000     0.0000
463 Q      0.0000     4.0000     4.0000     0.0000     0.0000     0.0000
464 Q      0.0000     4.0000     4.0000     0.0000     0.0000     0.0000
465 Q      0.0000     4.0000     4.0000     0.0000     0.0000     0.0000
466 Q      0.0000     4.0000     4.0000     0.0000     0.0000     0.0000
467 Q      0.0000     4.0000     4.0000     0.0000     0.0000     0.0000
468 Q      0.0000     4.0000     4.0000     0.0000     0.0000     0.0000
469 Q      0.0000     4.0000     4.0000     0.0000     0.0000     0.0000
470 Q      0.0000     4.0000     4.0000     0.0000     0.0000     0.0000
471 Q      0.0000     4.0000     4.0000     0.0000     0.0000     0.0000
472 Q      0.0000     4.0000     4.0000     0.0000     0.0000     0.0000
473 Q      0.0000     4.0000     4.0000     0.0000     0.0000     0.0000
474 Q      0.0000     4.0000     4.0000     0.0000     0.0000     0.0000
475 Q      0.0000     4.0000     4.0000     0.0000     0.0000     0.0000
476 Q      0.0000     4.0000     4.0000     0.0000     0.0000     0.0000
477 Q      0.0000     4.0000     4.0000     0.0000     0.0000     0.0000
478 Q      0.0000     4.0000     4.0000     0.0000     0.0000     0.0000
479 Q      0.0000     4.0000     4.0000     0.0000     0.0000     0.0000
480 Q      0.0000     4.0000     4.0000     0.0000     0.0000     0.0000
481 Q      0.0000     4.0000     4.0000     0.0000     0.0000     0.0000
482 Q      0.0000     4.0000     4.0000     0.0000     0.0000     0.0000
483 Q      0.0000     4.0000     4.0000     0.0000     0.0000     0.0000
484 Q      0.0000     4.0000     4.0000     0.0000     0.0000     0.0000
485 Q      0.0000     4.0000     4.0000     0.0000     0.0000     0.0000

  Mayer bond orders larger than 0.100000
B(  0-O ,  1-Ti) :   0.7277 B(  0-O ,  2-Ti) :   0.7277 B(  0-O ,  3-Ti) :   0.5164 
B(  1-Ti,  2-Ti) :   0.1456 B(  1-Ti,  4-O ) :   0.6791 B(  1-Ti,  9-O ) :   0.4820 
B(  1-Ti, 10-O ) :   0.4820 B(  1-Ti, 13-O ) :   0.6152 B(  1-Ti, 21-O ) :   0.5117 
B(  2-Ti,  4-O ) :   0.6791 B(  2-Ti, 11-O ) :   0.4821 B(  2-Ti, 12-O ) :   0.4821 
B(  2-Ti, 14-O ) :   0.6153 B(  2-Ti, 22-O ) :   0.5117 B(  3-Ti,  5-O ) :   0.6101 
B(  3-Ti,  6-O ) :   0.6100 B(  3-Ti,  7-O ) :   0.6100 B(  3-Ti,  8-O ) :   0.6100 
B(  3-Ti, 19-Ti) :   0.1412 B(  3-Ti, 20-Ti) :   0.1412 B(  3-Ti, 23-O ) :   0.3995 
B(  4-O , 32-Ti) :   0.6991 B(  5-O , 19-Ti) :   0.7458 B(  5-O , 24-Ti) :   0.6777 
B(  6-O , 19-Ti) :   0.7458 B(  6-O , 25-Ti) :   0.6777 B(  7-O , 20-Ti) :   0.7458 
B(  7-O , 26-Ti) :   0.6777 B(  8-O , 20-Ti) :   0.7458 B(  8-O , 27-Ti) :   0.6777 
B(  9-O , 17-Ti) :   0.7458 B(  9-O , 33-Ti) :   0.8192 B( 10-O , 18-Ti) :   0.7458 
B( 10-O , 34-Ti) :   0.8192 B( 11-O , 18-Ti) :   0.7457 B( 11-O , 35-Ti) :   0.8192 
B( 12-O , 17-Ti) :   0.7457 B( 12-O , 36-Ti) :   0.8192 B( 13-O , 19-Ti) :   0.5892 
B( 13-O , 41-Ti) :   0.8175 B( 14-O , 20-Ti) :   0.5892 B( 14-O , 42-Ti) :   0.8175 
B( 15-O , 17-Ti) :   0.5794 B( 15-O , 24-Ti) :   0.7553 B( 15-O , 27-Ti) :   0.7553 
B( 16-O , 18-Ti) :   0.5794 B( 16-O , 25-Ti) :   0.7553 B( 16-O , 26-Ti) :   0.7553 
B( 17-Ti, 39-O ) :   0.5978 B( 17-Ti, 43-O ) :   0.5699 B( 17-Ti, 46-O ) :   0.5699 
B( 18-Ti, 40-O ) :   0.5978 B( 18-Ti, 44-O ) :   0.5699 B( 18-Ti, 45-O ) :   0.5699 
B( 19-Ti, 51-O ) :   0.4576 B( 19-Ti, 53-O ) :   0.5281 B( 19-Ti, 54-O ) :   0.5281 
B( 19-Ti,140-O ) :  -0.1104 B( 20-Ti, 52-O ) :   0.4576 B( 20-Ti, 55-O ) :   0.5282 
B( 20-Ti, 56-O ) :   0.5282 B( 20-Ti,141-O ) :  -0.1104 B( 21-O , 41-Ti) :   0.8085 
B( 21-O , 61-Ti) :   0.7167 B( 22-O , 42-Ti) :   0.8085 B( 22-O , 62-Ti) :   0.7167 
B( 23-O , 63-Ti) :   0.7656 B( 23-O , 64-Ti) :   0.7656 B( 24-Ti, 27-Ti) :   0.1105 
B( 24-Ti, 28-O ) :   0.7123 B( 24-Ti, 37-O ) :   0.7133 B( 24-Ti, 65-O ) :   0.6505 
B( 24-Ti, 81-O ) :   0.4028 B( 25-Ti, 26-Ti) :   0.1105 B( 25-Ti, 29-O ) :   0.7123 
B( 25-Ti, 38-O ) :   0.7133 B( 25-Ti, 66-O ) :   0.6505 B( 25-Ti, 82-O ) :   0.4028 
B( 26-Ti, 30-O ) :   0.7123 B( 26-Ti, 38-O ) :   0.7133 B( 26-Ti, 67-O ) :   0.6505 
B( 26-Ti, 83-O ) :   0.4028 B( 27-Ti, 31-O ) :   0.7123 B( 27-Ti, 37-O ) :   0.7133 
B( 27-Ti, 68-O ) :   0.6505 B( 27-Ti, 84-O ) :   0.4028 B( 28-O , 33-Ti) :   0.7028 
B( 28-O , 85-Ti) :   0.7454 B( 29-O , 34-Ti) :   0.7028 B( 29-O , 86-Ti) :   0.7454 
B( 30-O , 35-Ti) :   0.7028 B( 30-O , 87-Ti) :   0.7454 B( 31-O , 36-Ti) :   0.7028 
B( 31-O , 88-Ti) :   0.7454 B( 32-Ti, 47-O ) :   0.7338 B( 32-Ti, 48-O ) :   0.7338 
B( 32-Ti, 49-O ) :   0.7338 B( 32-Ti, 50-O ) :   0.7338 B( 32-Ti,107-O ) :   0.6524 
B( 33-Ti, 43-O ) :   0.6993 B( 33-Ti, 57-O ) :   0.7365 B( 33-Ti, 69-O ) :   0.6549 
B( 33-Ti, 97-O ) :   0.6931 B( 34-Ti, 44-O ) :   0.6993 B( 34-Ti, 58-O ) :   0.7365 
B( 34-Ti, 70-O ) :   0.6549 B( 34-Ti, 98-O ) :   0.6931 B( 35-Ti, 45-O ) :   0.6993 
B( 35-Ti, 59-O ) :   0.7365 B( 35-Ti, 71-O ) :   0.6549 B( 35-Ti, 99-O ) :   0.6931 
B( 36-Ti, 46-O ) :   0.6993 B( 36-Ti, 60-O ) :   0.7365 B( 36-Ti, 72-O ) :   0.6549 
B( 36-Ti,100-O ) :   0.6931 B( 37-O , 91-Ti) :   0.7237 B( 38-O , 92-Ti) :   0.7237 
B( 39-O , 73-Ti) :   0.7503 B( 39-O , 76-Ti) :   0.7503 B( 40-O , 74-Ti) :   0.7503 
B( 40-O , 75-Ti) :   0.7503 B( 41-Ti, 57-O ) :   0.6431 B( 41-Ti, 58-O ) :   0.6431 
B( 41-Ti, 89-O ) :   0.8177 B( 41-Ti, 95-O ) :   0.7361 B( 42-Ti, 59-O ) :   0.6431 
B( 42-Ti, 60-O ) :   0.6431 B( 42-Ti, 90-O ) :   0.8177 B( 42-Ti, 96-O ) :   0.7362 
B( 43-O ,114-Ti) :   0.8051 B( 44-O ,115-Ti) :   0.8051 B( 45-O ,116-Ti) :   0.8051 
B( 46-O ,117-Ti) :   0.8051 B( 47-O , 61-Ti) :   0.7816 B( 47-O , 73-Ti) :   0.6739 
B( 48-O , 61-Ti) :   0.7816 B( 48-O , 74-Ti) :   0.6739 B( 49-O , 62-Ti) :   0.7816 
B( 49-O , 75-Ti) :   0.6739 B( 50-O , 62-Ti) :   0.7816 B( 50-O , 76-Ti) :   0.6739 
B( 51-O , 63-Ti) :   0.8442 B( 51-O ,124-Ti) :   0.8170 B( 52-O , 64-Ti) :   0.8442 
B( 52-O ,125-Ti) :   0.8170 B( 53-O , 85-Ti) :   0.6724 B( 53-O , 93-Ti) :   0.8816 
B( 54-O , 86-Ti) :   0.6724 B( 54-O , 93-Ti) :   0.8816 B( 55-O , 87-Ti) :   0.6724 
B( 55-O , 94-Ti) :   0.8816 B( 56-O , 88-Ti) :   0.6724 B( 56-O , 94-Ti) :   0.8816 
B( 57-O ,126-Ti) :   0.8252 B( 58-O ,127-Ti) :   0.8252 B( 59-O ,128-Ti) :   0.8252 
B( 60-O ,129-Ti) :   0.8252 B( 61-Ti,101-O ) :   0.6480 B( 61-Ti,102-O ) :   0.6480 
B( 61-Ti,160-O ) :   0.7310 B( 62-Ti,103-O ) :   0.6480 B( 62-Ti,104-O ) :   0.6480 
B( 62-Ti,161-O ) :   0.7310 B( 63-Ti, 77-O ) :   0.6431 B( 63-Ti, 78-O ) :   0.6431 
B( 63-Ti,154-O ) :   0.8163 B( 64-Ti, 79-O ) :   0.6431 B( 64-Ti, 80-O ) :   0.6431 
B( 64-Ti,155-O ) :   0.8163 B( 65-O , 85-Ti) :   0.7398 B( 65-O ,120-Ti) :   0.7203 
B( 66-O , 86-Ti) :   0.7398 B( 66-O ,121-Ti) :   0.7203 B( 67-O , 87-Ti) :   0.7398 
B( 67-O ,122-Ti) :   0.7203 B( 68-O , 88-Ti) :   0.7398 B( 68-O ,123-Ti) :   0.7203 
B( 69-O , 73-Ti) :   0.6876 B( 69-O ,142-Ti) :   0.8248 B( 70-O , 74-Ti) :   0.6876 
B( 70-O ,143-Ti) :   0.8248 B( 71-O , 75-Ti) :   0.6876 B( 71-O ,144-Ti) :   0.8248 
B( 72-O , 76-Ti) :   0.6876 B( 72-O ,145-Ti) :   0.8248 B( 73-Ti,108-O ) :   0.7488 
B( 73-Ti,136-O ) :   0.7470 B( 73-Ti,162-O ) :   0.7471 B( 74-Ti,109-O ) :   0.7488 
B( 74-Ti,137-O ) :   0.7470 B( 74-Ti,163-O ) :   0.7471 B( 75-Ti,109-O ) :   0.7488 
B( 75-Ti,138-O ) :   0.7470 B( 75-Ti,164-O ) :   0.7471 B( 76-Ti,108-O ) :   0.7488 
B( 76-Ti,139-O ) :   0.7470 B( 76-Ti,165-O ) :   0.7471 B( 77-O , 91-Ti) :   0.6704 
B( 77-O ,120-Ti) :   0.8220 B( 78-O , 92-Ti) :   0.6704 B( 78-O ,121-Ti) :   0.8220 
B( 79-O , 92-Ti) :   0.6704 B( 79-O ,122-Ti) :   0.8220 B( 80-O , 91-Ti) :   0.6704 
B( 80-O ,123-Ti) :   0.8220 B( 81-O ,118-Ti) :   0.8589 B( 81-O ,166-Ti) :   0.7897 
B( 82-O ,119-Ti) :   0.8589 B( 82-O ,167-Ti) :   0.7897 B( 83-O ,119-Ti) :   0.8589 
B( 83-O ,168-Ti) :   0.7897 B( 84-O ,118-Ti) :   0.8589 B( 84-O ,169-Ti) :   0.7897 
B( 85-Ti,110-O ) :   0.8081 B( 85-Ti,150-O ) :   0.6366 B( 85-Ti,172-O ) :   0.8701 
B( 86-Ti,111-O ) :   0.8081 B( 86-Ti,151-O ) :   0.6366 B( 86-Ti,173-O ) :   0.8701 
B( 87-Ti,112-O ) :   0.8081 B( 87-Ti,152-O ) :   0.6366 B( 87-Ti,174-O ) :   0.8701 
B( 88-Ti,113-O ) :   0.8081 B( 88-Ti,153-O ) :   0.6366 B( 88-Ti,175-O ) :   0.8701 
B( 89-O , 93-Ti) :   0.7471 B( 90-O , 94-Ti) :   0.7470 B( 91-Ti,132-O ) :   0.7836 
B( 91-Ti,135-O ) :   0.7836 B( 92-Ti,133-O ) :   0.7836 B( 92-Ti,134-O ) :   0.7836 
B( 93-Ti,140-O ) :   0.7541 B( 94-Ti,141-O ) :   0.7541 B( 95-O ,170-Ti) :   0.8123 
B( 96-O ,171-Ti) :   0.8123 B( 97-O ,126-Ti) :   0.8520 B( 98-O ,127-Ti) :   0.8520 
B( 99-O ,128-Ti) :   0.8520 B(100-O ,129-Ti) :   0.8520 B(101-O ,142-Ti) :   0.6481 
B(101-O ,170-Ti) :   0.8197 B(102-O ,143-Ti) :   0.6481 B(102-O ,170-Ti) :   0.8197 
B(103-O ,144-Ti) :   0.6481 B(103-O ,171-Ti) :   0.8197 B(104-O ,145-Ti) :   0.6481 
B(104-O ,171-Ti) :   0.8197 B(105-O ,114-Ti) :   0.7488 B(105-O ,117-Ti) :   0.7488 
B(105-O ,118-Ti) :   0.6746 B(106-O ,115-Ti) :   0.7488 B(106-O ,116-Ti) :   0.7488 
B(106-O ,119-Ti) :   0.6746 B(110-O ,126-Ti) :   0.7138 B(111-O ,127-Ti) :   0.7138 
B(112-O ,128-Ti) :   0.7138 B(113-O ,129-Ti) :   0.7138 B(114-Ti,130-O ) :   0.7651 
B(114-Ti,156-O ) :   0.7097 B(115-Ti,131-O ) :   0.7650 B(115-Ti,157-O ) :   0.7097 
B(116-Ti,131-O ) :   0.7650 B(116-Ti,158-O ) :   0.7097 B(117-Ti,130-O ) :   0.7651 
B(117-Ti,159-O ) :   0.7097 B(120-Ti,132-O ) :   0.7928 B(120-Ti,146-O ) :   0.7432 
B(121-Ti,133-O ) :   0.7928 B(121-Ti,147-O ) :   0.7432 B(122-Ti,134-O ) :   0.7928 
B(122-Ti,148-O ) :   0.7432 B(123-Ti,135-O ) :   0.7928 B(123-Ti,149-O ) :   0.7432 
B(124-Ti,140-O ) :   0.7555 B(124-Ti,146-O ) :   0.6991 B(124-Ti,147-O ) :   0.6991 
B(124-Ti,154-O ) :   0.7761 B(125-Ti,141-O ) :   0.7555 B(125-Ti,148-O ) :   0.6991 
B(125-Ti,149-O ) :   0.6991 B(125-Ti,155-O ) :   0.7761 B(126-Ti,176-O ) :   0.7354 
B(127-Ti,177-O ) :   0.7354 B(128-Ti,178-O ) :   0.7354 B(129-Ti,179-O ) :   0.7354 
B(142-Ti,162-O ) :   0.7571 B(142-Ti,176-O ) :   0.7608 B(143-Ti,163-O ) :   0.7571 
B(143-Ti,177-O ) :   0.7608 B(144-Ti,164-O ) :   0.7571 B(144-Ti,178-O ) :   0.7608 
B(145-Ti,165-O ) :   0.7571 B(145-Ti,179-O ) :   0.7608 B(150-O ,166-Ti) :   0.9312 
B(151-O ,167-Ti) :   0.9312 B(152-O ,168-Ti) :   0.9312 B(153-O ,169-Ti) :   0.9312 
B(156-O ,166-Ti) :   0.7537 B(157-O ,167-Ti) :   0.7537 B(158-O ,168-Ti) :   0.7537 
B(159-O ,169-Ti) :   0.7537 

-------
TIMINGS
-------

Total SCF time: 0 days 0 hours 24 min 42 sec 

Total time                  ....    1482.776 sec
Sum of individual times     ....    1439.814 sec  ( 97.1%)

Fock matrix formation       ....    1207.709 sec  ( 81.4%)
  XC integration            ....     226.885 sec  ( 18.8% of F)
    Basis function eval.    ....      48.928 sec  ( 21.6% of XC)
    Density eval.           ....     108.290 sec  ( 47.7% of XC)
    XC-Functional eval.     ....       2.900 sec  (  1.3% of XC)
    XC-Potential eval.      ....      48.582 sec  ( 21.4% of XC)
Diagonalization             ....      83.111 sec  (  5.6%)
Density matrix formation    ....      15.629 sec  (  1.1%)
Population analysis         ....       5.780 sec  (  0.4%)
Initial guess               ....      11.738 sec  (  0.8%)
Orbital Transformation      ....       0.000 sec  (  0.0%)
Orbital Orthonormalization  ....       0.000 sec  (  0.0%)
DIIS solution               ....      88.316 sec  (  6.0%)
Grid generation             ....      27.532 sec  (  1.9%)

Maximum memory used throughout the entire SCF-calculation: 1551.6 MB

-------------------------   --------------------
FINAL SINGLE POINT ENERGY    -93131.993852717656
-------------------------   --------------------


                            ***************************************
                            *     ORCA property calculations      *
                            ***************************************

                                    ---------------------
                                    Active property flags
                                    ---------------------
   (+) Dipole Moment


------------------------------------------------------------------------------
                       ORCA ELECTRIC PROPERTIES CALCULATION
------------------------------------------------------------------------------

Dipole Moment Calculation                       ... on
Quadrupole Moment Calculation                   ... off
Polarizability Calculation                      ... off
GBWName                                         ... orca.gbw
Electron density                                ... orca.scfp
The origin for moment calculation is the CENTER OF MASS  = ( 0.000000,  0.000000  0.078667)

-------------
DIPOLE MOMENT
-------------
                                X             Y             Z
Electronic contribution:      0.00001       0.00000     125.14593
Nuclear contribution   :      0.00000       0.00000     285.18085
                        -----------------------------------------
Total Dipole Moment    :      0.00001       0.00000     410.32678
                        -----------------------------------------
Magnitude (a.u.)       :    410.32678
Magnitude (Debye)      :   1042.96779



--------------------
Rotational spectrum 
--------------------
 
Rotational constants in cm-1:     0.000154     0.000150     0.000147 
Rotational constants in MHz :     4.606189     4.504827     4.400756 

 Dipole components along the rotational axes: 
x,y,z [a.u.] :     0.000006     0.000001   410.326779 
x,y,z [Debye]:     0.000015     0.000002  1042.967785 

 

Timings for individual modules:

Sum of individual times         ...     3444.091 sec (=  57.402 min)
GTO integral calculation        ...     1958.207 sec (=  32.637 min)  56.9 %
SCF iterations                  ...     1485.883 sec (=  24.765 min)  43.1 %
                             ****ORCA TERMINATED NORMALLY****
TOTAL RUN TIME: 0 days 1 hours 0 minutes 49 seconds 833 msec
