
                                 *****************
                                 * O   R   C   A *
                                 *****************

                                            #,                                       
                                            ###                                      
                                            ####                                     
                                            #####                                    
                                            ######                                   
                                           ########,                                 
                                     ,,################,,,,,                         
                               ,,#################################,,                 
                          ,,##########################################,,             
                       ,#########################################, ''#####,          
                    ,#############################################,,   '####,        
                  ,##################################################,,,,####,       
                ,###########''''           ''''###############################       
              ,#####''   ,,,,##########,,,,          '''####'''          '####       
            ,##' ,,,,###########################,,,                        '##       
           ' ,,###''''                  '''############,,,                           
         ,,##''                                '''############,,,,        ,,,,,,###''
      ,#''                                            '''#######################'''  
     '                                                          ''''####''''         
             ,#######,   #######,   ,#######,      ##                                
            ,#'     '#,  ##    ##  ,#'     '#,    #''#        ######   ,####,        
            ##       ##  ##   ,#'  ##            #'  '#       #        #'  '#        
            ##       ##  #######   ##           ,######,      #####,   #    #        
            '#,     ,#'  ##    ##  '#,     ,#' ,#      #,         ##   #,  ,#        
             '#######'   ##     ##  '#######'  #'      '#     #####' # '####'        



                  #######################################################
                  #                        -***-                        #
                  #          Department of theory and spectroscopy      #
                  #    Directorship and core code : Frank Neese         #
                  #        Max Planck Institute fuer Kohlenforschung    #
                  #                Kaiser Wilhelm Platz 1               #
                  #                 D-45470 Muelheim/Ruhr               #
                  #                      Germany                        #
                  #                                                     #
                  #                  All rights reserved                #
                  #                        -***-                        #
                  #######################################################


                         Program Version 5.0.1 -  RELEASE  -


 With contributions from (in alphabetic order):
   Daniel Aravena         : Magnetic Suceptibility
   Michael Atanasov       : Ab Initio Ligand Field Theory (pilot matlab implementation)
   Alexander A. Auer      : GIAO ZORA, VPT2 properties, NMR spectrum
   Ute Becker             : Parallelization
   Giovanni Bistoni       : ED, misc. LED, open-shell LED, HFLD
   Martin Brehm           : Molecular dynamics
   Dmytro Bykov           : SCF Hessian
   Vijay G. Chilkuri      : MRCI spin determinant printing, contributions to CSF-ICE
   Dipayan Datta          : RHF DLPNO-CCSD density
   Achintya Kumar Dutta   : EOM-CC, STEOM-CC
   Dmitry Ganyushin       : Spin-Orbit,Spin-Spin,Magnetic field MRCI
   Miquel Garcia          : C-PCM and meta-GGA Hessian, CC/C-PCM, Gaussian charge scheme
   Yang Guo               : DLPNO-NEVPT2, F12-NEVPT2, CIM, IAO-localization
   Andreas Hansen         : Spin unrestricted coupled pair/coupled cluster methods
   Benjamin Helmich-Paris : MC-RPA, TRAH-SCF, COSX integrals
   Lee Huntington         : MR-EOM, pCC
   Robert Izsak           : Overlap fitted RIJCOSX, COSX-SCS-MP3, EOM
   Marcus Kettner         : VPT2
   Christian Kollmar      : KDIIS, OOCD, Brueckner-CCSD(T), CCSD density, CASPT2, CASPT2-K
   Simone Kossmann        : Meta GGA functionals, TD-DFT gradient, OOMP2, MP2 Hessian
   Martin Krupicka        : Initial AUTO-CI
   Lucas Lang             : DCDCAS
   Marvin Lechner         : AUTO-CI (C++ implementation), FIC-MRCC
   Dagmar Lenk            : GEPOL surface, SMD
   Dimitrios Liakos       : Extrapolation schemes; Compound Job, initial MDCI parallelization
   Dimitrios Manganas     : Further ROCIS development; embedding schemes
   Dimitrios Pantazis     : SARC Basis sets
   Anastasios Papadopoulos: AUTO-CI, single reference methods and gradients
   Taras Petrenko         : DFT Hessian,TD-DFT gradient, ASA, ECA, R-Raman, ABS, FL, XAS/XES, NRVS
   Peter Pinski           : DLPNO-MP2, DLPNO-MP2 Gradient
   Christoph Reimann      : Effective Core Potentials
   Marius Retegan         : Local ZFS, SOC
   Christoph Riplinger    : Optimizer, TS searches, QM/MM, DLPNO-CCSD(T), (RO)-DLPNO pert. Triples
   Tobias Risthaus        : Range-separated hybrids, TD-DFT gradient, RPA, STAB
   Michael Roemelt        : Original ROCIS implementation
   Masaaki Saitow         : Open-shell DLPNO-CCSD energy and density
   Barbara Sandhoefer     : DKH picture change effects
   Avijit Sen             : IP-ROCIS
   Kantharuban Sivalingam : CASSCF convergence, NEVPT2, FIC-MRCI
   Bernardo de Souza      : ESD, SOC TD-DFT
   Georgi Stoychev        : AutoAux, RI-MP2 NMR, DLPNO-MP2 response
   Willem Van den Heuvel  : Paramagnetic NMR
   Boris Wezisla          : Elementary symmetry handling
   Frank Wennmohs         : Technical directorship


 We gratefully acknowledge several colleagues who have allowed us to
 interface, adapt or use parts of their codes:
   Stefan Grimme, W. Hujo, H. Kruse, P. Pracht,  : VdW corrections, initial TS optimization,
                  C. Bannwarth, S. Ehlert          DFT functionals, gCP, sTDA/sTD-DF
   Ed Valeev, F. Pavosevic, A. Kumar             : LibInt (2-el integral package), F12 methods
   Garnet Chan, S. Sharma, J. Yang, R. Olivares  : DMRG
   Ulf Ekstrom                                   : XCFun DFT Library
   Mihaly Kallay                                 : mrcc  (arbitrary order and MRCC methods)
   Jiri Pittner, Ondrej Demel                    : Mk-CCSD
   Frank Weinhold                                : gennbo (NPA and NBO analysis)
   Christopher J. Cramer and Donald G. Truhlar   : smd solvation model
   Lars Goerigk                                  : TD-DFT with DH, B97 family of functionals
   V. Asgeirsson, H. Jonsson                     : NEB implementation
   FAccTs GmbH                                   : IRC, NEB, NEB-TS, DLPNO-Multilevel, CI-OPT
                                                   MM, QMMM, 2- and 3-layer-ONIOM, Crystal-QMMM,
                                                   LR-CPCM, SF, NACMEs, symmetry and pop. for TD-DFT,
                                                   nearIR, NL-DFT gradient (VV10), updates on ESD,
                                                   ML-optimized integration grids
   S Lehtola, MJT Oliveira, MAL Marques          : LibXC Library
   Liviu Ungur et al                             : ANISO software


 Your calculation uses the libint2 library for the computation of 2-el integrals
 For citations please refer to: http://libint.valeyev.net

 Your ORCA version has been built with support for libXC version: 5.1.0
 For citations please refer to: https://tddft.org/programs/libxc/

 This ORCA versions uses:
   CBLAS   interface :  Fast vector & matrix operations
   LAPACKE interface :  Fast linear algebra routines
   SCALAPACK package :  Parallel linear algebra routines
   Shared memory     :  Shared parallel matrices
   BLAS/LAPACK       :  OpenBLAS 0.3.15  USE64BITINT DYNAMIC_ARCH NO_AFFINITY Zen SINGLE_THREADED
        Core in use  :  Zen
   Copyright (c) 2011-2014, The OpenBLAS Project


SCAN-COORDS
================================================================================

----- Orbital basis set information -----
Your calculation utilizes the basis: aug-cc-pVQZ 
    H, B-Ne : Obtained from the ccRepo (grant-hill.group.shef.ac.uk/ccrepo) Feb. 2017
              R. A. Kendall, T. H. Dunning, Jr., R. J. Harrison, J. Chem. Phys. 96, 6796 (1992)
         He : Obtained from the ccRepo (grant-hill.group.shef.ac.uk/ccrepo) Feb. 2017
              D. E. Woon, T. H. Dunning, Jr., J. Chem. Phys. 100, 2975 (1994)
  Li-Be, Na : Obtained from the ccRepo (grant-hill.group.shef.ac.uk/ccrepo) Feb. 2017
              B. P. Prascher, D. E. Woon, K. A. Peterson, T. H. Dunning, Jr., A. K. Wilson, Theor. Chem. Acc. 128, 69 (2011)
         Mg : Obtained from the Peterson Research Group Website (tyr0.chem.wsu.edu/~kipeters) Feb. 2017
              B. P. Prascher, D. E. Woon, K. A. Peterson, T. H. Dunning, Jr., A. K. Wilson, Theor. Chem. Acc. 128, 69 (2011)
      Al-Ar : Obtained from the ccRepo (grant-hill.group.shef.ac.uk/ccrepo) Feb. 2017
              D. E. Woon, T. H. Dunning, Jr., J. Chem. Phys. 98, 1358 (1993)
      Sc-Zn : Obtained from the ccRepo (grant-hill.group.shef.ac.uk/ccrepo) Feb. 2017
              N. B. Balabanov, K. A. Peterson, J. Chem. Phys. 123, 064107 (2005)
              N. B. Balabanov, K. A. Peterson, J. Chem. Phys. 125, 074110 (2006)
      Ga-Kr : Obtained from the ccRepo (grant-hill.group.shef.ac.uk/ccrepo) Feb. 2017
              A. K. Wilson, D. E. Woon, K. A. Peterson, T. H. Dunning, Jr., J. Chem. Phys. 110, 7667 (1999)

----- AuxJ basis set information -----
Your calculation utilizes the AutoAux generation procedure.
  G. L. Stoychev, A. A. Auer, F. Neese, J. Chem. Theory Comput. 13, 554 (2017)

----- AuxC basis set information -----
Your calculation utilizes the AutoAux generation procedure.
  G. L. Stoychev, A. A. Auer, F. Neese, J. Chem. Theory Comput. 13, 554 (2017)

================================================================================
                                        WARNINGS
                       Please study these warnings very carefully!
================================================================================


WARNING: Post HF methods need fully converged wavefunctions
  ===> : Setting SCFConvForced true
         You can overwrite this default with %scf ConvForced false 


WARNING: PNO calculations with unrestricted orbitals require UNOs
  ===> : Switching on UNOs

WARNING: Unrestricted DLPNO-CCSD(T0/T) with FullLMP2-Guess requested.
         This is not yet implemented.
         When comparing energies between closed and open shell calculations:
  ===> : Be aware to set UseFullLMP2Guess to false for the corresponding closed shell calculations.
         Note that UseFullLMP2Guess is done by default only for TightPNO closed shell calculations.


WARNING: MDCI localization with Augmented Hessian Foster-Boys
  ===> : Switching off randomization!

INFO   : the flag for use of the SHARK integral package has been found!

================================================================================
                                       INPUT FILE
================================================================================
NAME = orca.inp
|  1> ! VeryTightSCF DLPNO-CCSD(T) NormalPNO RIJCOSX SlowConv DIIS NOTRAH
|  2> %maxcore 4000
|  3> %pal
|  4>   nprocs 4
|  5> end
|  6> %method
|  7>   Method HF
|  8>   RI on
|  9>   RunTyp Energy
| 10> end
| 11> %basis
| 12>   Basis "aug-cc-pVQZ"
| 13>   Aux "AutoAux"
| 14>   AuxC "AutoAux"
| 15> end
| 16> %scf
| 17>   HFTyp uhf
| 18>   Guess Hueckel
| 19>   AutoStart True
| 20>   SCFMode Direct
| 21>   MaxIter 1000
| 22>   sthresh 1e-6
| 23> end
| 24> %coords
| 25>   CTyp xyz
| 26>   Mult 3
| 27>   Units angs
| 28>   coords
| 29> O                      0.00000000000    0.00000000000    0.00000000000
| 30>   end
| 31> end
| 32> 
| 33>                          ****END OF INPUT****
================================================================================

                       ****************************
                       * Single Point Calculation *
                       ****************************

---------------------------------
CARTESIAN COORDINATES (ANGSTROEM)
---------------------------------
  O      0.000000    0.000000    0.000000

----------------------------
CARTESIAN COORDINATES (A.U.)
----------------------------
  NO LB      ZA    FRAG     MASS         X           Y           Z
   0 O     8.0000    0    15.999    0.000000    0.000000    0.000000

--------------------------------
INTERNAL COORDINATES (ANGSTROEM)
--------------------------------
 O      0   0   0     0.000000000000     0.00000000     0.00000000

---------------------------
INTERNAL COORDINATES (A.U.)
---------------------------
 O      0   0   0     0.000000000000     0.00000000     0.00000000

---------------------
BASIS SET INFORMATION
---------------------
There are 1 groups of distinct atoms

 Group   1 Type O   : 22s7p4d3f2g contracted to 6s5p4d3f2g pattern {991111/31111/1111/111/11}

Atom   0O    basis set group =>   1
---------------------------------
AUXILIARY/J BASIS SET INFORMATION
---------------------------------
There are 1 groups of distinct atoms

 Group   1 Type O   : 16s14p13d7f7g5h contracted to 16s14p13d7f7g5h pattern {1111111111111111/11111111111111/1111111111111/1111111/1111111/11111}

Atom   0O    basis set group =>   1
---------------------------------
AUXILIARY/C BASIS SET INFORMATION
---------------------------------
There are 1 groups of distinct atoms

 Group   1 Type O   : 16s14p13d7f7g5h contracted to 16s14p13d7f7g5h pattern {1111111111111111/11111111111111/1111111111111/1111111/1111111/11111}

Atom   0O    basis set group =>   1


           ************************************************************
           *        Program running with 4 parallel MPI-processes     *
           *              working on a common directory               *
           ************************************************************
------------------------------------------------------------------------------
                           ORCA GTO INTEGRAL CALCULATION
                           -- RI-GTO INTEGRALS CHOSEN --
------------------------------------------------------------------------------
------------------------------------------------------------------------------
                   ___                                                        
                  /   \      - P O W E R E D   B Y -                         
                 /     \                                                     
                 |  |  |   _    _      __       _____    __    __             
                 |  |  |  | |  | |    /  \     |  _  \  |  |  /  |          
                  \  \/   | |  | |   /    \    | | | |  |  | /  /          
                 / \  \   | |__| |  /  /\  \   | |_| |  |  |/  /          
                |  |  |   |  __  | /  /__\  \  |    /   |      \           
                |  |  |   | |  | | |   __   |  |    \   |  |\   \          
                \     /   | |  | | |  |  |  |  | |\  \  |  | \   \       
                 \___/    |_|  |_| |__|  |__|  |_| \__\ |__|  \__/        
                                                                              
                      - O R C A' S   B I G   F R I E N D -                    
                                      &                                       
                       - I N T E G R A L  F E E D E R -                       
                                                                              
 v1 FN, 2020, v2 2021                                                         
------------------------------------------------------------------------------


Reading SHARK input file orca.SHARKINP.tmp ... ok
----------------------
SHARK INTEGRAL PACKAGE
----------------------

Number of atoms                             ...      1
Number of basis functions                   ...     80
Number of shells                            ...     20
Maximum angular momentum                    ...      4
Integral batch strategy                     ... SHARK/LIBINT Hybrid
RI-J (if used) integral strategy            ... SPLIT-RIJ (Revised 2003 algorithm where possible)
Printlevel                                  ...      1
Contraction scheme used                     ... SEGMENTED contraction
Coulomb Range Separation                    ... NOT USED
Exchange Range Separation                   ... NOT USED
Finite Nucleus Model                        ... NOT USED
Auxiliary Coulomb fitting basis             ... AVAILABLE
   # of basis functions in Aux-J            ...    290
   # of shells in Aux-J                     ...     62
   Maximum angular momentum in Aux-J        ...      5
Auxiliary J/K fitting basis                 ... NOT available
Auxiliary Correlation fitting basis         ... AVAILABLE
   # of basis functions in Aux-C            ...    290
   # of shells in Aux-C                     ...     62
   Maximum angular momentum in Aux-C        ...      5
Auxiliary 'external' fitting basis          ... NOT available
Integral threshold                          ...     1.000000e-12
Primitive cut-off                           ...     1.000000e-14
Primitive pair pre-selection threshold      ...     1.000000e-14

Calculating pre-screening integrals         ... done (  0.1 sec) Dimension = 20
Organizing shell pair data                  ... done (  0.0 sec)
Shell pair information
Total number of shell pairs                 ...       210
Shell pairs after pre-screening             ...       210
Total number of primitive shell pairs       ...       816
Primitive shell pairs kept                  ...       816
          la=0 lb=0:     21 shell pairs
          la=1 lb=0:     30 shell pairs
          la=1 lb=1:     15 shell pairs
          la=2 lb=0:     24 shell pairs
          la=2 lb=1:     20 shell pairs
          la=2 lb=2:     10 shell pairs
          la=3 lb=0:     18 shell pairs
          la=3 lb=1:     15 shell pairs
          la=3 lb=2:     12 shell pairs
          la=3 lb=3:      6 shell pairs
          la=4 lb=0:     12 shell pairs
          la=4 lb=1:     10 shell pairs
          la=4 lb=2:      8 shell pairs
          la=4 lb=3:      6 shell pairs
          la=4 lb=4:      3 shell pairs

Calculating one electron integrals          ... done (  0.0 sec)
Calculating RI/J V-Matrix + Cholesky decomp.... done (  0.0 sec)
Calculating RI/C V-Matrix + Cholesky decomp.... done (  0.0 sec)
Calculating Nuclear repulsion               ... done (  0.0 sec) ENN=      0.000000000000 Eh

SHARK setup successfully completed in   0.1 seconds

Maximum memory used throughout the entire GTOINT-calculation: 31.5 MB


           ************************************************************
           *        Program running with 4 parallel MPI-processes     *
           *              working on a common directory               *
           ************************************************************
-------------------------------------------------------------------------------
                                 ORCA SCF
-------------------------------------------------------------------------------

------------
SCF SETTINGS
------------
Hamiltonian:
 Ab initio Hamiltonian  Method          .... Hartree-Fock(GTOs)
 RI-approximation to the Coulomb term is turned on
   Number of AuxJ basis functions       .... 290
   RIJ-COSX (HFX calculated with COS-X)).... on


General Settings:
 Integral files         IntName         .... orca
 Hartree-Fock type      HFTyp           .... UHF
 Total Charge           Charge          ....    0
 Multiplicity           Mult            ....    3
 Number of Electrons    NEL             ....    8
 Basis Dimension        Dim             ....   80
 Nuclear Repulsion      ENuc            ....      0.0000000000 Eh

Convergence Acceleration:
 DIIS                   CNVDIIS         .... on
   Start iteration      DIISMaxIt       ....     0
   Startup error        DIISStart       ....  0.200000
   # of expansion vecs  DIISMaxEq       ....     5
   Bias factor          DIISBfac        ....   1.050
   Max. coefficient     DIISMaxC        ....  10.000
 Trust-Rad. Augm. Hess. CNVTRAH         .... off
 SOSCF                  CNVSOSCF        .... off
 Level Shifting         CNVShift        .... on
   Level shift para.    LevelShift      ....    0.2500
   Turn off err/grad.   ShiftErr        ....    0.0000
 Zerner damping         CNVZerner       .... off
 Static damping         CNVDamp         .... on
   Fraction old density DampFac         ....    0.8500
   Max. Damping (<1)    DampMax         ....    0.9800
   Min. Damping (>=0)   DampMin         ....    0.0000
   Turn off err/grad.   DampErr         ....    0.0300
 Fernandez-Rico         CNVRico         .... off

SCF Procedure:
 Maximum # iterations   MaxIter         ....  1000
 SCF integral mode      SCFMode         .... Direct
   Integral package                     .... SHARK and LIBINT hybrid scheme
 Reset frequency        DirectResetFreq ....    20
 Integral Threshold     Thresh          ....  1.000e-12 Eh
 Primitive CutOff       TCut            ....  1.000e-14 Eh

Convergence Tolerance:
 Convergence Check Mode ConvCheckMode   .... Total+1el-Energy
 Convergence forced     ConvForced      .... 1
 Energy Change          TolE            ....  1.000e-09 Eh
 1-El. energy change                    ....  1.000e-06 Eh
 DIIS Error             TolErr          ....  1.000e-08


Diagonalization of the overlap matrix:
Smallest eigenvalue                        ... 3.610e-03
Time for diagonalization                   ...    0.001 sec
Threshold for overlap eigenvalues          ... 1.000e-06
Number of eigenvalues below threshold      ... 0
Time for construction of square roots      ...    0.000 sec
Total time needed                          ...    0.001 sec

--------------------------------
INITIAL GUESS: MINIMAL BASIS EHT
--------------------------------
The minimal basis has 5 functions
EHT matrix was diagonalized
Basis set overlap was calculated now projecting the orbitals
Using GuessMode=FMatrix for the initial guess
C*T matrix was formed
Effective Fockian was calculated
Effective Fockian was diagonalized
Initial density was built
                      ------------------
                      INITIAL GUESS DONE
                      ------------------
--------------------
COSX GRID GENERATION
--------------------

GRIDX 1
-------
General Integration Accuracy     IntAcc      ... 3.816
Radial Grid Type                 RadialGrid  ... OptM3 with GC (2021)
Angular Grid (max. ang.)         AngularGrid ... 1 (Lebedev-50)
Angular grid pruning method      GridPruning ... 4 (adaptive)
Weight generation scheme         WeightScheme... Becke
Basis function cutoff            BFCut       ... 1.0000e-12
Integration weight cutoff        WCut        ... 1.0000e-14
Angular grids for H and He will be reduced by one unit
Partially contracted basis set               ... on
Rotationally invariant grid construction     ... off

Total number of grid points                  ...      820
Total number of batches                      ...       13
Average number of points per batch           ...       63
Average number of grid points per atom       ...      820
UseSFitting                                  ... on

GRIDX 2
-------
General Integration Accuracy     IntAcc      ... 4.020
Radial Grid Type                 RadialGrid  ... OptM3 with GC (2021)
Angular Grid (max. ang.)         AngularGrid ... 2 (Lebedev-110)
Angular grid pruning method      GridPruning ... 4 (adaptive)
Weight generation scheme         WeightScheme... Becke
Basis function cutoff            BFCut       ... 1.0000e-12
Integration weight cutoff        WCut        ... 1.0000e-14
Angular grids for H and He will be reduced by one unit
Partially contracted basis set               ... on
Rotationally invariant grid construction     ... off

Total number of grid points                  ...     2312
Total number of batches                      ...       37
Average number of points per batch           ...       62
Average number of grid points per atom       ...     2312
UseSFitting                                  ... on

GRIDX 3
-------
General Integration Accuracy     IntAcc      ... 4.338
Radial Grid Type                 RadialGrid  ... OptM3 with GC (2021)
Angular Grid (max. ang.)         AngularGrid ... 3 (Lebedev-194)
Angular grid pruning method      GridPruning ... 4 (adaptive)
Weight generation scheme         WeightScheme... Becke
Basis function cutoff            BFCut       ... 1.0000e-12
Integration weight cutoff        WCut        ... 1.0000e-14
Angular grids for H and He will be reduced by one unit
Partially contracted basis set               ... on
Rotationally invariant grid construction     ... off

Total number of grid points                  ...     4980
Total number of batches                      ...       78
Average number of points per batch           ...       63
Average number of grid points per atom       ...     4980
UseSFitting                                  ... on

Time for X-Grid setup             =    0.029 sec

 re-compute Schwartz prescreening matrix in partically contracted basis (1) ...done (   0.075 sec)
--------------
SCF ITERATIONS
--------------
ITER       Energy         Delta-E        Max-DP      RMS-DP      [F,P]     Damp
               ***  Starting incremental Fock matrix formation  ***
  0    -74.5545670597   0.000000000000 0.02945807  0.00061112  0.7259742 0.8500
  1    -74.5895917864  -0.035024726715 0.02518359  0.00052719  0.6251408 0.8500
                               ***Turning on DIIS***
  2    -74.6203250209  -0.030733234446 0.02151822  0.00045553  0.5382651 0.8500
  3    -74.7067289147  -0.086403893840 0.01854759  0.00040424  0.4634035 0.8500
  4    -74.7911694186  -0.084440503923 0.01596579  0.00036193  0.3974625 0.8500
  5    -74.8258526876  -0.034683269011 0.01359701  0.00031749  0.3392200 0.8500
  6    -74.8369557929  -0.011103105254 0.01152746  0.00027439  0.2887847 0.8500
  7    -74.8353678356   0.001587957297 0.00973886  0.00023475  0.2455886 0.8500
  8    -74.8340744595   0.001293376114 0.00824298  0.00020048  0.2088704 0.8500
  9    -74.8325582171   0.001516242343 0.00698998  0.00017107  0.1776505 0.8500
 10    -74.8307492482   0.001808968988 0.00593591  0.00014591  0.1510996 0.8500
 11    -74.8288774915   0.001871756646 0.00504584  0.00012442  0.1285192 0.8500
 12    -74.8271067980   0.001770693495 0.00429215  0.00010609  0.1093156 0.8500
 13    -74.8255299662   0.001576831850 0.00365273  0.00009045  0.0929837 0.8500
 14    -74.8241503735   0.001379592641 0.00310954  0.00007712  0.0790932 0.8500
 15    -74.8229476559   0.001202717589 0.00264766  0.00006576  0.0672785 0.8500
 16    -74.8219009772   0.001046678754 0.00225470  0.00005607  0.0572290 0.8500
 17    -74.8209923462   0.000908631012 0.00192025  0.00004781  0.0486808 0.8500
 18    -74.8202057796   0.000786566600 0.00163552  0.00004077  0.0414095 0.8500
 19    -74.8195262466   0.000679533012 0.00139308  0.00003477  0.0352243 0.8500
               *** Restarting incremental Fock matrix formation ***
                                   *** Resetting DIIS ***
 20    -74.8037553407   0.015770905878 0.00117614  0.00003107  0.0573861 0.8500
 21    -74.8102080794  -0.006452738731 0.00101764  0.00002835  0.0503233 0.8500
 22    -74.8164755981  -0.006267518653 0.00087880  0.00002597  0.0435812 0.8500
 23    -74.8187639713  -0.002288373284 0.00075033  0.00002313  0.0374332 0.8500
 24    -74.8193343635  -0.000570392132 0.00063755  0.00002017  0.0319991 0.8500
 25    -74.8189184385   0.000415924961 0.00359868  0.00011557  0.0272906 0.0000
 26    -74.8177580864   0.001160352164 0.00015793  0.00000407  0.0005119 0.0000
               *** Restarting incremental Fock matrix formation ***
                                   *** Resetting DIIS ***
 27    -74.8176276711   0.000130415213 0.00004577  0.00000165  0.0001779 0.0000
 28    -74.8176699926  -0.000042321413 0.00003015  0.00000104  0.0000907 0.0000
 29    -74.8176315159   0.000038476629 0.00001132  0.00000031  0.0000340 0.0000
 30    -74.8176332781  -0.000001762185 0.00000425  0.00000011  0.0000112 0.0000
 31    -74.8176288098   0.000004468293 0.00000152  0.00000004  0.0000040 0.0000
 32    -74.8176283137   0.000000496073 0.00000043  0.00000001  0.0000012 0.0000
 33    -74.8176280947   0.000000219039 0.00000021  0.00000000  0.0000004 0.0000
 34    -74.8176279701   0.000000124622 0.00000008  0.00000000  0.0000001 0.0000
 35    -74.8176279035   0.000000066555 0.00000003  0.00000000  0.0000000 0.0000
                            ***DIIS convergence achieved***

               *****************************************************
               *                     SUCCESS                       *
               *           SCF CONVERGED AFTER  36 CYCLES          *
               *****************************************************

Old exchange energy                            =     -8.216646902 Eh
New exchange energy                            =     -8.216646672 Eh
Exchange energy change after final integration =      0.000000230 Eh
Total energy after final integration           =    -74.817627645 Eh
Final COS-X integration done in                =     0.081 sec

----------------
TOTAL SCF ENERGY
----------------

Total Energy       :          -74.81762765 Eh           -2035.89115 eV

Components:
Nuclear Repulsion  :            0.00000000 Eh               0.00000 eV
Electronic Energy  :          -74.81762765 Eh           -2035.89115 eV
One Electron Energy:         -103.24660532 Eh           -2809.48296 eV
Two Electron Energy:           28.42897767 Eh             773.59181 eV
Max COSX asymmetry :            0.00000005 Eh               0.00000 eV

Virial components:
Potential Energy   :         -149.63195917 Eh           -4071.69261 eV
Kinetic Energy     :           74.81433152 Eh            2035.80146 eV
Virial Ratio       :            2.00004406


---------------
SCF CONVERGENCE
---------------

  Last Energy change         ...    2.7659e-08  Tolerance :   1.0000e-09
  Last MAX-Density change    ...    0.0000e+00  Tolerance :   1.0000e-08
  Last RMS-Density change    ...    0.0000e+00  Tolerance :   1.0000e-09
  Last DIIS Error            ...    9.2700e-09  Tolerance :   1.0000e-08

             **** THE GBW FILE WAS UPDATED (orca.gbw) ****
             **** DENSITY orca.scfp WAS UPDATED ****
             **** ENERGY FILE WAS UPDATED (orca.en.tmp) ****
----------------------
UHF SPIN CONTAMINATION
----------------------

Expectation value of <S**2>     :     2.009359
Ideal value S*(S+1) for S=1.0   :     2.000000
Deviation                       :     0.009359

             **** THE GBW FILE WAS UPDATED (orca.gbw) ****
             **** DENSITY orca.scfp WAS UPDATED ****
----------------
ORBITAL ENERGIES
----------------
                 SPIN UP ORBITALS
  NO   OCC          E(Eh)            E(eV) 
   0   1.0000     -20.708589      -563.5094 
   1   1.0000      -1.418674       -38.6041 
   2   1.0000      -0.711081       -19.3495 
   3   1.0000      -0.711081       -19.3495 
   4   1.0000      -0.611668       -16.6443 
   5   0.0000       0.132277         3.5994 
   6   0.0000       0.132277         3.5994 
   7   0.0000       0.136137         3.7045 
   8   0.0000       0.140005         3.8097 
   9   0.0000       0.460958        12.5433 
  10   0.0000       0.460958        12.5433 
  11   0.0000       0.472606        12.8603 
  12   0.0000       0.472606        12.8603 
  13   0.0000       0.476677        12.9710 
  14   0.0000       0.677760        18.4428 
  15   0.0000       0.677760        18.4428 
  16   0.0000       0.711774        19.3683 
  17   0.0000       0.873344        23.7649 
  18   0.0000       1.308778        35.6137 
  19   0.0000       1.308778        35.6137 
  20   0.0000       1.323556        36.0158 
  21   0.0000       1.323556        36.0158 
  22   0.0000       1.332690        36.2643 
  23   0.0000       1.332690        36.2643 
  24   0.0000       1.335789        36.3487 
  25   0.0000       1.464990        39.8644 
  26   0.0000       1.464990        39.8644 
  27   0.0000       1.501964        40.8705 
  28   0.0000       1.501964        40.8705 
  29   0.0000       1.515184        41.2303 
  30   0.0000       2.663774        72.4850 
  31   0.0000       2.663774        72.4850 
  32   0.0000       2.732009        74.3418 
  33   0.0000       3.590581        97.7047 
  34   0.0000       3.590581        97.7047 
  35   0.0000       3.611718        98.2798 
  36   0.0000       3.611718        98.2798 
  37   0.0000       3.627056        98.6972 
  38   0.0000       3.627056        98.6972 
  39   0.0000       3.636362        98.9504 
  40   0.0000       3.636362        98.9504 
  41   0.0000       3.639482        99.0353 
  42   0.0000       3.884938       105.7145 
  43   0.0000       3.963902       107.8632 
  44   0.0000       3.963902       107.8632 
  45   0.0000       3.999989       108.8452 
  46   0.0000       3.999989       108.8452 
  47   0.0000       4.022238       109.4507 
  48   0.0000       4.022238       109.4507 
  49   0.0000       4.029779       109.6559 
  50   0.0000       4.221634       114.8765 
  51   0.0000       4.221634       114.8765 
  52   0.0000       4.281645       116.5095 
  53   0.0000       4.281645       116.5095 
  54   0.0000       4.302746       117.0837 
  55   0.0000      10.275063       279.5987 
  56   0.0000      10.275063       279.5987 
  57   0.0000      10.346184       281.5340 
  58   0.0000      10.490668       285.4656 
  59   0.0000      10.490673       285.4657 
  60   0.0000      10.528835       286.5042 
  61   0.0000      10.528836       286.5042 
  62   0.0000      10.556372       287.2535 
  63   0.0000      10.556374       287.2535 
  64   0.0000      10.573014       287.7063 
  65   0.0000      10.573015       287.7064 
  66   0.0000      10.578578       287.8577 
  67   0.0000      11.704828       318.5046 
  68   0.0000      11.704828       318.5046 
  69   0.0000      11.756665       319.9151 
  70   0.0000      11.756666       319.9151 
  71   0.0000      11.788359       320.7776 
  72   0.0000      11.788359       320.7776 
  73   0.0000      11.799049       321.0684 
  74   0.0000      12.527984       340.9038 
  75   0.0000      12.527984       340.9038 
  76   0.0000      12.591007       342.6187 
  77   0.0000      12.591007       342.6187 
  78   0.0000      12.612471       343.2028 
  79   0.0000      40.403543      1099.4363 

                 SPIN DOWN ORBITALS
  NO   OCC          E(Eh)            E(eV) 
   0   1.0000     -20.629883      -561.3677 
   1   1.0000      -1.075945       -29.2780 
   2   1.0000      -0.521728       -14.1969 
   3   0.0000       0.062467         1.6998 
   4   0.0000       0.062467         1.6998 
   5   0.0000       0.143165         3.8957 
   6   0.0000       0.146811         3.9949 
   7   0.0000       0.197791         5.3822 
   8   0.0000       0.197791         5.3822 
   9   0.0000       0.477899        13.0043 
  10   0.0000       0.477899        13.0043 
  11   0.0000       0.479491        13.0476 
  12   0.0000       0.479491        13.0476 
  13   0.0000       0.480314        13.0700 
  14   0.0000       0.732831        19.9413 
  15   0.0000       0.804406        21.8890 
  16   0.0000       0.804406        21.8890 
  17   0.0000       0.925803        25.1924 
  18   0.0000       1.325640        36.0725 
  19   0.0000       1.325640        36.0725 
  20   0.0000       1.333752        36.2932 
  21   0.0000       1.333752        36.2932 
  22   0.0000       1.338653        36.4266 
  23   0.0000       1.338653        36.4266 
  24   0.0000       1.340270        36.4706 
  25   0.0000       1.555319        42.3224 
  26   0.0000       1.558969        42.4217 
  27   0.0000       1.558969        42.4217 
  28   0.0000       1.573015        42.8039 
  29   0.0000       1.573015        42.8039 
  30   0.0000       2.773765        75.4780 
  31   0.0000       2.823604        76.8342 
  32   0.0000       2.823604        76.8342 
  33   0.0000       3.618289        98.4586 
  34   0.0000       3.618289        98.4586 
  35   0.0000       3.631918        98.8295 
  36   0.0000       3.631918        98.8295 
  37   0.0000       3.641657        99.0945 
  38   0.0000       3.641657        99.0945 
  39   0.0000       3.647495        99.2534 
  40   0.0000       3.647495        99.2534 
  41   0.0000       3.649439        99.3063 
  42   0.0000       3.980705       108.3205 
  43   0.0000       4.039017       109.9072 
  44   0.0000       4.039017       109.9072 
  45   0.0000       4.051421       110.2448 
  46   0.0000       4.051421       110.2448 
  47   0.0000       4.058827       110.4463 
  48   0.0000       4.058827       110.4463 
  49   0.0000       4.061284       110.5132 
  50   0.0000       4.381799       119.2348 
  51   0.0000       4.385342       119.3312 
  52   0.0000       4.385342       119.3312 
  53   0.0000       4.398819       119.6979 
  54   0.0000       4.398819       119.6979 
  55   0.0000      10.385212       282.5960 
  56   0.0000      10.395385       282.8728 
  57   0.0000      10.395385       282.8728 
  58   0.0000      10.561853       287.4026 
  59   0.0000      10.561855       287.4027 
  60   0.0000      10.583847       288.0011 
  61   0.0000      10.583847       288.0011 
  62   0.0000      10.599588       288.4295 
  63   0.0000      10.599590       288.4295 
  64   0.0000      10.609047       288.6868 
  65   0.0000      10.609048       288.6869 
  66   0.0000      10.612199       288.7726 
  67   0.0000      11.821444       321.6778 
  68   0.0000      11.821445       321.6779 
  69   0.0000      11.840745       322.2031 
  70   0.0000      11.840749       322.2032 
  71   0.0000      11.852384       322.5198 
  72   0.0000      11.852388       322.5199 
  73   0.0000      11.856257       322.6252 
  74   0.0000      12.668143       344.7177 
  75   0.0000      12.668143       344.7177 
  76   0.0000      12.676926       344.9567 
  77   0.0000      12.676926       344.9567 
  78   0.0000      12.679939       345.0387 
  79   0.0000      40.452225      1100.7610 

                    ********************************
                    * MULLIKEN POPULATION ANALYSIS *
                    ********************************

--------------------------------------------
MULLIKEN ATOMIC CHARGES AND SPIN POPULATIONS
--------------------------------------------
   0 O :    0.000000    2.000000
Sum of atomic charges         :    0.0000000
Sum of atomic spin populations:    2.0000000

-----------------------------------------------------
MULLIKEN REDUCED ORBITAL CHARGES AND SPIN POPULATIONS
-----------------------------------------------------
CHARGE
  0 O s       :     3.998391  s :     3.998391
      pz      :     1.000385  p :     3.999603
      px      :     1.018576
      py      :     1.980642
      dz2     :     0.000401  d :     0.001609
      dxz     :     0.000000
      dyz     :     0.000002
      dx2y2   :     0.001117
      dxy     :     0.000088
      f0      :     0.000040  f :     0.000397
      f+1     :     0.000008
      f-1     :     0.000067
      f+2     :     0.000063
      f-2     :     0.000005
      f+3     :     0.000103
      f-3     :     0.000111
      g0      :     0.000000  g :     0.000000
      g+1     :     0.000000
      g-1     :     0.000000
      g+2     :     0.000000
      g-2     :     0.000000
      g+3     :     0.000000
      g-3     :     0.000000
      g+4     :     0.000000
      g-4     :     0.000000

SPIN
  0 O s       :     0.000620  s :     0.000620
      pz      :     0.999399  p :     1.999611
      px      :     0.981206
      py      :     0.019006
      dz2     :    -0.000155  d :    -0.000620
      dxz     :    -0.000000
      dyz     :    -0.000001
      dx2y2   :    -0.000431
      dxy     :    -0.000034
      f0      :     0.000040  f :     0.000389
      f+1     :     0.000008
      f-1     :     0.000064
      f+2     :     0.000063
      f-2     :     0.000005
      f+3     :     0.000102
      f-3     :     0.000107
      g0      :     0.000000  g :     0.000000
      g+1     :     0.000000
      g-1     :     0.000000
      g+2     :     0.000000
      g-2     :     0.000000
      g+3     :     0.000000
      g-3     :     0.000000
      g+4     :     0.000000
      g-4     :     0.000000


                     *******************************
                     * LOEWDIN POPULATION ANALYSIS *
                     *******************************

-------------------------------------------
LOEWDIN ATOMIC CHARGES AND SPIN POPULATIONS
-------------------------------------------
   0 O :    0.000000    2.000000

----------------------------------------------------
LOEWDIN REDUCED ORBITAL CHARGES AND SPIN POPULATIONS
----------------------------------------------------
CHARGE
  0 O s       :     3.998391  s :     3.998391
      pz      :     1.000385  p :     3.999603
      px      :     1.018576
      py      :     1.980642
      dz2     :     0.000401  d :     0.001609
      dxz     :     0.000000
      dyz     :     0.000002
      dx2y2   :     0.001117
      dxy     :     0.000088
      f0      :     0.000040  f :     0.000397
      f+1     :     0.000008
      f-1     :     0.000067
      f+2     :     0.000063
      f-2     :     0.000005
      f+3     :     0.000103
      f-3     :     0.000111
      g0      :     0.000000  g :     0.000000
      g+1     :     0.000000
      g-1     :     0.000000
      g+2     :     0.000000
      g-2     :     0.000000
      g+3     :     0.000000
      g-3     :     0.000000
      g+4     :     0.000000
      g-4     :     0.000000

SPIN
  0 O s       :     0.000620  s :     0.000620
      pz      :     0.999399  p :     1.999611
      px      :     0.981206
      py      :     0.019006
      dz2     :    -0.000155  d :    -0.000620
      dxz     :    -0.000000
      dyz     :    -0.000001
      dx2y2   :    -0.000431
      dxy     :    -0.000034
      f0      :     0.000040  f :     0.000389
      f+1     :     0.000008
      f-1     :     0.000064
      f+2     :     0.000063
      f-2     :     0.000005
      f+3     :     0.000102
      f-3     :     0.000107
      g0      :     0.000000  g :     0.000000
      g+1     :     0.000000
      g-1     :     0.000000
      g+2     :     0.000000
      g-2     :     0.000000
      g+3     :     0.000000
      g-3     :     0.000000
      g+4     :     0.000000
      g-4     :     0.000000


                      *****************************
                      * MAYER POPULATION ANALYSIS *
                      *****************************

  NA   - Mulliken gross atomic population
  ZA   - Total nuclear charge
  QA   - Mulliken gross atomic charge
  VA   - Mayer's total valence
  BVA  - Mayer's bonded valence
  FA   - Mayer's free valence

  ATOM       NA         ZA         QA         VA         BVA        FA
  0 O      8.0000     8.0000     0.0000     2.0187     0.0000     2.0187

  Mayer bond orders larger than 0.100000



                ***UHF Natural Orbitals were saved in orca.unso***


                ***UHF Natural Orbitals were saved in orca.uno***

QR-MO GENERATION
 Dim     =   80
 Mult    =    3
 NEl     =    8
 N(DOMO) =    3
 N(SOMO) =    2
 N(VMO)  =   75


                ***Quasi-Restricted Orbitals were saved in orca.qro***

Orbital Energies of Quasi-Restricted MO's
   0( 2) :   -20.629826 a.u.  -561.366 eV
   1( 2) :    -1.072330 a.u.   -29.180 eV
   2( 2) :    -0.520601 a.u.   -14.166 eV
   3( 1) :    -0.265799 a.u.    -7.233 eV alpha=  -19.349 beta=    4.884
   4( 1) :    -0.265799 a.u.    -7.233 eV alpha=  -19.349 beta=    4.884
   5( 0) :     0.132277 a.u.     3.599 eV
   6( 0) :     0.132277 a.u.     3.599 eV
   7( 0) :     0.135662 a.u.     3.692 eV
   8( 0) :     0.139767 a.u.     3.803 eV
   9( 0) :     0.460958 a.u.    12.543 eV
  10( 0) :     0.460958 a.u.    12.543 eV
  11( 0) :     0.472606 a.u.    12.860 eV
  12( 0) :     0.472606 a.u.    12.860 eV
  13( 0) :     0.476366 a.u.    12.963 eV
  14( 0) :     0.677760 a.u.    18.443 eV
  15( 0) :     0.677760 a.u.    18.443 eV
  16( 0) :     0.711186 a.u.    19.352 eV
  17( 0) :     0.872424 a.u.    23.740 eV
  18( 0) :     1.308778 a.u.    35.614 eV
  19( 0) :     1.308778 a.u.    35.614 eV
  20( 0) :     1.323556 a.u.    36.016 eV
  21( 0) :     1.323556 a.u.    36.016 eV
  22( 0) :     1.332690 a.u.    36.264 eV
  23( 0) :     1.332690 a.u.    36.264 eV
  24( 0) :     1.335730 a.u.    36.347 eV
  25( 0) :     1.464990 a.u.    39.864 eV
  26( 0) :     1.464990 a.u.    39.864 eV
  27( 0) :     1.501964 a.u.    40.871 eV
  28( 0) :     1.501964 a.u.    40.871 eV
  29( 0) :     1.513820 a.u.    41.193 eV
  30( 0) :     2.663774 a.u.    72.485 eV
  31( 0) :     2.663774 a.u.    72.485 eV
  32( 0) :     2.731904 a.u.    74.339 eV
  33( 0) :     3.590581 a.u.    97.705 eV
  34( 0) :     3.590581 a.u.    97.705 eV
  35( 0) :     3.611718 a.u.    98.280 eV
  36( 0) :     3.611718 a.u.    98.280 eV
  37( 0) :     3.627056 a.u.    98.697 eV
  38( 0) :     3.627056 a.u.    98.697 eV
  39( 0) :     3.636362 a.u.    98.950 eV
  40( 0) :     3.636362 a.u.    98.950 eV
  41( 0) :     3.639481 a.u.    99.035 eV
  42( 0) :     3.884786 a.u.   105.710 eV
  43( 0) :     3.963902 a.u.   107.863 eV
  44( 0) :     3.963902 a.u.   107.863 eV
  45( 0) :     3.999989 a.u.   108.845 eV
  46( 0) :     3.999989 a.u.   108.845 eV
  47( 0) :     4.022238 a.u.   109.451 eV
  48( 0) :     4.022238 a.u.   109.451 eV
  49( 0) :     4.029644 a.u.   109.652 eV
  50( 0) :     4.221634 a.u.   114.876 eV
  51( 0) :     4.221634 a.u.   114.876 eV
  52( 0) :     4.281645 a.u.   116.509 eV
  53( 0) :     4.281645 a.u.   116.509 eV
  54( 0) :     4.301991 a.u.   117.063 eV
  55( 0) :    10.275063 a.u.   279.599 eV
  56( 0) :    10.275063 a.u.   279.599 eV
  57( 0) :    10.346182 a.u.   281.534 eV
  58( 0) :    10.490668 a.u.   285.466 eV
  59( 0) :    10.490673 a.u.   285.466 eV
  60( 0) :    10.528835 a.u.   286.504 eV
  61( 0) :    10.528836 a.u.   286.504 eV
  62( 0) :    10.556372 a.u.   287.253 eV
  63( 0) :    10.556374 a.u.   287.254 eV
  64( 0) :    10.573014 a.u.   287.706 eV
  65( 0) :    10.573015 a.u.   287.706 eV
  66( 0) :    10.578578 a.u.   287.858 eV
  67( 0) :    11.704828 a.u.   318.505 eV
  68( 0) :    11.704828 a.u.   318.505 eV
  69( 0) :    11.756665 a.u.   319.915 eV
  70( 0) :    11.756666 a.u.   319.915 eV
  71( 0) :    11.788359 a.u.   320.778 eV
  72( 0) :    11.788359 a.u.   320.778 eV
  73( 0) :    11.799004 a.u.   321.067 eV
  74( 0) :    12.527984 a.u.   340.904 eV
  75( 0) :    12.527984 a.u.   340.904 eV
  76( 0) :    12.591007 a.u.   342.619 eV
  77( 0) :    12.591007 a.u.   342.619 eV
  78( 0) :    12.612411 a.u.   343.201 eV
  79( 0) :    40.403537 a.u.  1099.436 eV
-------
TIMINGS
-------

Total SCF time: 0 days 0 hours 0 min 2 sec 

Total time                  ....       2.362 sec
Sum of individual times     ....       2.214 sec  ( 93.7%)

Fock matrix formation       ....       2.040 sec  ( 86.4%)
  Split-RI-J                ....       0.410 sec  ( 20.1% of F)
  Chain of spheres X        ....       1.600 sec  ( 78.4% of F)
Diagonalization             ....       0.078 sec  (  3.3%)
Density matrix formation    ....       0.004 sec  (  0.2%)
Population analysis         ....       0.007 sec  (  0.3%)
Initial guess               ....       0.001 sec  (  0.0%)
Orbital Transformation      ....       0.000 sec  (  0.0%)
Orbital Orthonormalization  ....       0.000 sec  (  0.0%)
DIIS solution               ....       0.056 sec  (  2.4%)

Maximum memory used throughout the entire SCF-calculation: 61.3 MB


           ************************************************************
           *        Program running with 4 parallel MPI-processes     *
           *              working on a common directory               *
           ************************************************************


------------------------------------------------------------------------------- 
                              ORCA-MATRIX DRIVEN CI                            
------------------------------------------------------------------------------- 


Wavefunction type
-----------------
Correlation treatment                      ...      CCSD     
Single excitations                         ... ON
Orbital optimization                       ... OFF
Calculation of Z vector                    ... OFF
Calculation of Brueckner orbitals          ... OFF
Perturbative triple excitations            ... ON
Calculation of F12 correction              ... OFF
Frozen core treatment                      ... chemical core (2 el)
Reference Wavefunction                     ... UHF
  Alpha-MOs occ    :     1 ...    4 (  4 MO's/  4 electrons)
  Beta-MOs occ     :     1 ...    2 (  2 MO's/  2 electrons)
  Alpha-MOs virt   :     5 ...   79 ( 75 MO's              )
  Beta-MOs virt    :     3 ...   79 ( 77 MO's              )
  Quasi restricted orbitals will be used (this is similar to a ROHF determinant)
Number of AO's                             ...     80
Number of electrons                        ...      8
Number of correlated electrons             ...      6

Algorithmic settings
--------------------
Integral transformation                    ... All integrals via the RI transformation
RHF integral transformation will be used
K(C) Formation                             ... RI-DLPNO
   PNO-Integral Storage                    ... ON DISK
   PNO occupation number cut-off           ... 3.330e-07
   Singles PNO occupation number cut-off   ... 9.990e-09
   PNO Mulliken prescreening cut-off       ... 1.000e-03
   Domain cut-off (Mulliken population)    ... 1.000e-03
   PNO Normalization                       ...    1
Maximum number of iterations               ...        50
Convergence tolerance (max. residuum)      ... 1.000e-06
Level shift for amplitude update           ... 2.000e-01
Maximum number of DIIS vectors             ...         7
DIIS turned on at iteration                ...         0
Damping before turning on DIIS             ...     0.500
Damping after turning on DIIS              ...     0.000
Pair specific amplitude update             ... OFF
Natural orbital iterations                 ... OFF
Perturbative natural orbital generation    ... OFF
Printlevel                                 ... 2

Singles Fock matrix elements calculated using PNOs.

Memory handling:
----------------
Maximum memory for working arrays          ...   4000 MB
Data storage in matrix containers          ... UNCOMPRESSED
Data type for integral storage             ... DOUBLE
In-Core Storage of quantities:
   Amplitudes+Sigma Vector      ... NO
   J+K operators                ... NO
   DIIS vectors                 ... NO
   3-external integrals         ... NO
   4-external integrals         ... NO

Localization treatment:
-----------------------
Localization option                        ...    6
Localization threshhold                    ... -1.0e+00
Using relative localization threshhold     ... 1.0e-08
Neglect threshold for strong pairs         ... 1.000e-04 Eh
Prescreening threshold for very weak pairs ... 1.000e-06 Eh

Initializing the integral package          ... done
Localizing the QROs
------------------------------------------------------------------------------
                           ORCA ORBITAL LOCALIZATION
------------------------------------------------------------------------------

Input orbitals are from                  ... orca.qro
Output orbitals are to                   ... orca.loc
Max. number of iterations                ... 128
Localizations seeded randomly            ... off
Convergence tolerance                    ... 2.000e-07
Using relative localization threshhold   ... 1.000e-08
Treshold for strong local MOs            ... 9.500e-01
Treshold for bond MOs                    ... 8.500e-01
Operator                                 ... 0
Orbital range for localization           ... 1 to 2
Localization criterion                   ... FOSTER-BOYS (AUGMENTED HESSIAN)
Doing the dipole integrals     ... o.k.
Initial value of the localization sum :     0.000000
ITERATION   0 : L=    0.9258943638 DL=  9.26e-01 (AVERGE_DL)=    0.9622340483 
ITERATION   1 : L=    0.9258943638 DL=  0.00e+00 (AVERGE_DL)=    0.0000000000 
LOCALIZATION SUM CONVERGED

------------------------------------------------------
AUGMENTED HESSIAN OPTIMIZATION OF FOSTER-BOYS ORBITALS
------------------------------------------------------

Spin operator:           0
Orbital window:          1 to 2
Number of iterations:    128
Gradient tolerance:      2.000e-07
Number of pairs:         1
Davidson threshold:      2000
Diagonalization method:  LAPACK
Iter:    0   L: 0.9258943638   Grad. norm: 4.313186e-16
   *** Likely close to a maximum now. ***
       Augmented Hessian eigenvalues:  2.51e-32 -7.41e+00
Iter:    1   L: 0.9258943638   Grad. norm: 0.000000e+00
LOCALIZATION HAS CONVERGED.

Eigenvalues of the Hessian:
  0 -7.407e+00


------------------------------------------------------------------------------- 
                    LOCALIZED MOLECULAR ORBITAL COMPOSITIONS                   
------------------------------------------------------------------------------- 

The Mulliken populations for each LMO on each atom are computed
The LMO`s will be ordered according to atom index and type
  (A) Strongly localized MO`s have populations of >=0.950 on one atom
  (B) Two center bond orbitals have populations of >=0.850 on two atoms
  (C) Other MO`s are considered to be `delocalized`

FOUND  -   2 strongly local MO`s
       -   0 two center bond MO`s
       -   0 significantly delocalized MO`s

Rather strongly localized orbitals:
MO   2:   0O  -   1.000000
MO   1:   0O  -   1.000000
Localized MO's were stored in: orca.loc

------------------------------------------------------------------------------
                           ORCA ORBITAL LOCALIZATION
------------------------------------------------------------------------------

Input orbitals are from                  ... orca.loc
Output orbitals are to                   ... orca.loc
Max. number of iterations                ... 128
Localizations seeded randomly            ... off
Convergence tolerance                    ... 2.000e-07
Using relative localization threshhold   ... 1.000e-08
Treshold for strong local MOs            ... 9.500e-01
Treshold for bond MOs                    ... 8.500e-01
Operator                                 ... 0
Orbital range for localization           ... 3 to 4
Localization criterion                   ... FOSTER-BOYS (AUGMENTED HESSIAN)
Doing the dipole integrals     ... o.k.
Initial value of the localization sum :     0.000000
ITERATION   0 : L=    0.0000000000 DL=  0.00e+00 (AVERGE_DL)=    0.0000000000 
LOCALIZATION SUM CONVERGED

------------------------------------------------------
AUGMENTED HESSIAN OPTIMIZATION OF FOSTER-BOYS ORBITALS
------------------------------------------------------

Spin operator:           0
Orbital window:          3 to 4
Number of iterations:    128
Gradient tolerance:      2.000e-07
Number of pairs:         1
Davidson threshold:      2000
Diagonalization method:  LAPACK
Iter:    0   L: 0.0000000000   Grad. norm: 8.326460e-19
   Warning! Singular Hessian - taking eigenvector #1
   *** Only (near) zero eigenvalues found. ***
LOCALIZATION HAS CONVERGED.

Eigenvalues of the Hessian:
  0  1.263e-17


------------------------------------------------------------------------------- 
                    LOCALIZED MOLECULAR ORBITAL COMPOSITIONS                   
------------------------------------------------------------------------------- 

The Mulliken populations for each LMO on each atom are computed
The LMO`s will be ordered according to atom index and type
  (A) Strongly localized MO`s have populations of >=0.950 on one atom
  (B) Two center bond orbitals have populations of >=0.850 on two atoms
  (C) Other MO`s are considered to be `delocalized`

FOUND  -   2 strongly local MO`s
       -   0 two center bond MO`s
       -   0 significantly delocalized MO`s

Rather strongly localized orbitals:
MO   4:   0O  -   1.000000
MO   3:   0O  -   1.000000
Localized MO's were stored in: orca.loc

Localizing the core orbitals
------------------------------------------------------------------------------
                           ORCA ORBITAL LOCALIZATION
------------------------------------------------------------------------------

Input orbitals are from                  ... orca.loc
Output orbitals are to                   ... orca.loc
Max. number of iterations                ... 128
Localizations seeded randomly            ... off
Convergence tolerance                    ... 2.000e-07
Using relative localization threshhold   ... 1.000e-08
Treshold for strong local MOs            ... 9.500e-01
Treshold for bond MOs                    ... 8.500e-01
Operator                                 ... 0
Orbital range for localization           ... 0 to 0
Localization criterion                   ... FOSTER-BOYS (AUGMENTED HESSIAN)
Doing the dipole integrals     ... o.k.

ORCA_LOC: ONLY ONE ORBITAL - SKIPPING LOCALIZATION


------------------------------------------------------------------------------- 
                    LOCALIZED MOLECULAR ORBITAL COMPOSITIONS                   
------------------------------------------------------------------------------- 

The Mulliken populations for each LMO on each atom are computed
The LMO`s will be ordered according to atom index and type
  (A) Strongly localized MO`s have populations of >=0.950 on one atom
  (B) Two center bond orbitals have populations of >=0.850 on two atoms
  (C) Other MO`s are considered to be `delocalized`

FOUND  -   1 strongly local MO`s
       -   0 two center bond MO`s
       -   0 significantly delocalized MO`s

Rather strongly localized orbitals:
MO   0:   0O  -   1.000000
Localized MO's were stored in: orca.loc

Re-Reading QRO orbitals for the actual calculation
  ... duplicating orbitals and energies 
  ... adjusting occupation numbers
Warning: reference  - re-canonicalizations have been set to INT 1 VIRT 1
Warning: internal orbitals are localized - no re-canonicalization of internal orbitals
Warning: UsePNO is turned on - no re-canonicalization of internal and virtual orbitals

--------------
DLPNO SETTINGS
--------------

TCutMKN:           1.000e-03
TCutPAO:           1.000e-03
TCutPNO:           3.330e-07
TCutPNOSingles:    9.990e-09
TCutPAOExt:        1.000e-01
TCutPairs:         1.000e-04
TCutPre:           1.000e-06
TCutDOij:          1.000e-05
PAO overlap thresh 1.000e-08
Number of singly-occupied orbitals: 2
TCutTNO:           1.000e-09
TCutMP2Pairs:      1.000e-05
TCutDOStrong:      2.000e-03
TCutMKNStrong:     1.000e-02
TCutMKNWeak:       1.000e-01
TCutDOWeak:        4.000e-03
NTCutTNO:          1
Using PNOs for Singles Fock computation
--------------------------
Reading one-electron matrix from orca.H.tmp ...done
Entering RIJCOSX section for the open-shell Fock matrices
Calculating the full J-matrix                     ... done
Calculating all K-matrices                        ... done
RIJCOSX finished
Reference energy                           ...    -74.810967565
Calculating differential overlap integrals (occ,PAO) ... ok
 >> Construction of the PNO with the Koopmans (K)-matrix << 
Entering the RI transformation section

-----------------
RI-TRANSFORMATION (AUX index driven)
-----------------

Dimension of the orbital-basis         ... 80
Dimension of the aux-basis             ... 290
Transformation of internal MOs         ...    3-   4
Number Format for Storage              ... Double (8 Byte)
Integral mode                          ... Direct

First Phase: integral generation and transformation of MO indices
  Aux angular momentum 0               ... done (    0.001 sec)
  Aux angular momentum 1               ... done (    0.001 sec)
  Aux angular momentum 2               ... done (    0.001 sec)
  Aux angular momentum 3               ... done (    0.001 sec)
  Aux angular momentum 4               ... done (    0.001 sec)
  Aux angular momentum 5               ... done (    0.002 sec)
Closing buffer VIJ ( 0.00 GB; CompressionRatio= 0.67)
  Phase 1 completed in     0.066 sec
Second Phase: sorting and transformation of aux index

IJ-Transformation
Memory available                       ... 4000 MB 
Max. # MO pairs treated in a batch     ... 1    
# of internal orbitals                 ... 2
# batches for internal orbitals        ... 1
Closing buffer IJV ( 0.00 GB; CompressionRatio= 0.99)
(ij|v) transformation done in     0.000 sec

  Phase 2 completed in     0.000 sec
RI-Integral transformation completed in     0.067 sec

-----------------------
RI-FORMATION OF (ij|kl)
-----------------------

Max core memory to be used            ... 4000 MB
Memory needed per MO pair             ...   0.0 MB
# of MO pairs included in trafo       ... 3
# of MO pairs treated in a batch      ... 1
# of batches needed                   ... 1
Data format used                      ... DOUBLE
 done (    0.000 sec)
Closing buffer JIJ ( 0.00 GB; CompressionRatio= 0.67)
(ij|kl) transformation completed in     0.000 sec
     ... leaving the RI transformation section
 >> 4-active ERIs are generated & stored in-core fast memory 
 >> End construction..
F12 correction will NOT be calculated
 >>>>>>>>>>>>>>>>>>>>>>>>>>>>>>>>>>>>> 
       Dipole-based Prescreening       
 <<<<<<<<<<<<<<<<<<<<<<<<<<<<<<<<<<<<< 
Threshold for domain construction in prescreening:
   TCutDO    ...     1.0e-02
--------------------------
ELECTRON PAIR PRESCREENING
--------------------------

PAO based multipole pair screening          .... used
   TCutDOij = 1.000000e-05
   TCutPre  = 1.000000e-06
 done

sum of pair energies estimated for screened out pairs ...       0.000000000000 Eh
                                                           
  __   __        __   ___     __        ___  __   __       
 /  ` |__) |  | |  \ |__     / _` |  | |__  /__` /__`     
 \__, |  \ \__/ |__/ |___    \__> \__/ |___ .__/ .__/ 
                                                           

Parameters for the crude guess:
   TScaleDOMP2PreScr   : 2.000e+00
   TScaleMKNMP2PreScr  : 1.000e+01
   TScalePNOMP2PreScr  : 1.000e+00
   TScalePairsMP2PreScr: 1.000e+00
   PAO overlap thresh    1.000e-08
Thresholds for map construction and integral transformation for crude MP2:
   TCutMKN                    ...     1.0e-02
   TCutDO                     ...     2.0e-02
   TCutPairs                  ...     1.0e-04
   TCutPairs_CrudeMP2         ...     1.0e-04
   TCutPNO_CrudeMP2           ...     3.3e-07
   TCutPNOSingles_CrudeMP2    ...     1.0e-08
--------------------------------
LOCAL RI TRANSFORMATION (IAVPAO)
--------------------------------

Orbital window:       1 to 4
Number of PAOs:      82
Basis functions:     80 (20 shells)
Aux. functions:     290 (62 shells)
Use SHARK:           on

Processing maps (0.0 sec)
Average map sizes:
   Aux shells -> MOs               4.0
   Aux shells -> PAOs             82.0
   MOs        -> AO shells        20.0
   PAOs       -> AO shells        20.0

Calculating integrals (0.1 sec, 0.729 MB)
Sorting integrals (0.0 sec, 0.726 MB)
Total time for the integral transformation: 0.1 sec

-----------------------------------------
   _  _______   __    ___  _  ______     
  / |/ / __/ | / /___/ _ \/ |/ / __ \  
 /    / _/ | |/ /___/ ___/    / /_/ /    
/_/|_/___/ |___/   /_/  /_/|_/\____/    
                                         
                for open-shell molecules 
-----------------------------------------


 ==> UMP guess in NEV-PNO space 

Truncation parameters                       .... 
    PAOOverlapThresh     =        1.000e-08
Pair selection                          .... not used
    TCutPairs            =        1.000e-04
    TCutMKN              =        1.000e-02
    TCutDO               =        1.000e-02
    TCutCMO              =        1.000e-03
    TCutCPAO             =        1.000e-03
    TCutPNO              =        3.330e-07
    TScaleTCutPNO_SS     =        1.000e+00
    TScaleTCutPNO_SD     =        1.000e+00
    TScalePNO_Core       =        1.000e-02
    TCutDO_Crude         =        2.000e-02
    TCutMKN_Crude        =        1.000e-02
    TCutPairs_Crude      =        1.000e-04
    TCutPNO_Crude        =        3.330e-07
    TCutCMO              =        1.000e-03
    TCutCPAO             =        1.000e-03
Spin component scaling in ijab excitation            .... not used

Formation of guess energy and open-shell PNO.

NEV-PNO operators..
  E(ij->ab)
  E(ip->ab)
  E(pq->ab)
  E(ij->pq)
  E(pq->ra)
  E(ip->qr)
  E(ip->aq) and E(ip->qa)

 Norm of Semi-Internal Fock Operators ...   0.0002024860
  ==> Semi-internal excitations detected 

   .... Finished loop over pairs

                       ===========================
                         12 OF   12 PAIRS ARE KEPT CC PAIRS
                          0 OF   12 PAIRS ARE KEPT PT2 PAIRS
                          0 OF   12 PAIRS ARE SKIPPED
                       ===========================

 Initial PAO correlation energy (all pairs)    ...  -0.1674009481 Eh
 Energy constituents in PAO basis (Eh):
  | Vijab(+0) ...  -0.0564067805
  | Viab (-1) ...  -0.0625333137
  | Vab  (-2) ...  -0.0073887025
  | Va   (-1) ...  -0.0000411895
  | Vija (+1) ...  -0.0121385087
  | Via  (+0) ...  -0.0288924533
 Initial PNO correlation energy                ...  -0.1661069501 Eh
 Energy constituents in PNO basis (Eh):
  | Vijab(+0) ...  -0.0563206328 (err=  0.0000861477)
  | Viab (-1) ...  -0.0614216843 (err=  0.0011116294)
  | Vab  (-2) ...  -0.0072924564 (err=  0.0000962461)
  | Va   (-1) ...  -0.0000411953 (err= -0.0000000058)
  | Vija (+1) ...  -0.0121373467 (err=  0.0000011620)
  | Via  (+0) ...  -0.0288936347 (err= -0.0000011815)
 Sum of total truncation errors ...   0.0012939980 Eh
  | Pair screening ...   0.0000000000 Eh
  | PNO truncation ...   0.0012939980 Eh

 UMP2 correlation energy (PAO) ...  -0.1594395620
  | alpha-alpha ...  -0.0321998948 (NP_aa=    6)
  | alpha-beta  ...  -0.1224392849 (NP_ab=    8)
  | beta -beta  ...  -0.0048003824 (NP_bb=    1)
 UMP2 correlation energy (PNO) ...  -0.1580680076
  | alpha-alpha ...  -0.0314067740 (err=  0.0007931207, NP_aa=    6)
  | alpha-beta  ...  -0.1218652691 (err=  0.0005740158, NP_ab=    8)
  | beta -beta  ...  -0.0047959646 (err=  0.0000044178, NP_bb=    1)
 Sum of total UMP2 truncation errors ...   0.0013715543 Eh
  | Pair screening ...   0.0000000000 Eh
  | PNO truncation ...   0.0013715543 Eh
 Timing for NEV-PNO construction (sec.)
  | Intermediate construction  ..            0.001
  | Amplitude construction     ..            0.001
  | Total time                 ..            0.001
 Making pair pair interaction lists ...      ok
                                                 
  ___         ___     __        ___  __   __     
 |__  | |\ | |__     / _` |  | |__  /__` /__`   
 |    | | \| |___    \__> \__/ |___ .__/ .__/ 
                                                 

Thresholds for map construction and integral transformation:
   TCutMKN   ...     1.0e-03
   TCutDO    ...     1.0e-02
   TCutCMO   ...     1.0e-03
   TCutCPAO  ...     1.0e-03

Thresholds for map construction and integral transformation for strong Triples:
   TCutMKN   ...     1.0e-02
   TCutDO    ...     2.0e-02
   TCutCMO   ...     1.0e-03
   TCutCPAO  ...     1.0e-03

Thresholds for map construction and integral transformation for weak Triples:
   TCutMKN   ...     1.0e-01
   TCutDO    ...     4.0e-02
   TCutCMO   ...     1.0e-03
   TCutCPAO  ...     1.0e-03

--------------------------------
LOCAL RI TRANSFORMATION (IAVPAO)
--------------------------------

Orbital window:       1 to 4
Number of PAOs:      82
Basis functions:     80 (20 shells)
Aux. functions:     290 (62 shells)
Use SHARK:           on

Processing maps (0.0 sec)
Average map sizes:
   Aux shells -> MOs               4.0
   Aux shells -> PAOs             82.0
   MOs        -> AO shells        20.0
   PAOs       -> AO shells        20.0

Calculating integrals (0.1 sec, 0.729 MB)
Sorting integrals (0.0 sec, 0.726 MB)
Total time for the integral transformation: 0.1 sec

 ==> UMP guess in NEV-PNO space 

Truncation parameters                       .... 
    PAOOverlapThresh     =        1.000e-08
Pair selection                          .... not used
    TCutPairs            =        1.000e-04
    TCutMKN              =        1.000e-03
    TCutDO               =        1.000e-02
    TCutCMO              =        1.000e-03
    TCutCPAO             =        1.000e-03
    TCutPNO              =        3.330e-07
    TScaleTCutPNO_SS     =        1.000e+00
    TScaleTCutPNO_SD     =        1.000e+00
    TScalePNO_Core       =        1.000e-02
    TScaleTCutPairs_Somo =        3.300e-01
    TScaleTCutPairs_Core =        1.000e+00
    TCutPairs_MP2        =        1.000e-05
    TCutCMO              =        1.000e-03
    TCutCPAO             =        1.000e-03
Spin component scaling in ijab excitation            .... not used

Formation of guess energy and open-shell PNO.

NEV-PNO operators..
  E(ij->ab)
  E(ip->ab)
  E(pq->ab)
  E(ij->pq)
  E(pq->ra)
  E(ip->qr)
  E(ip->aq) and E(ip->qa)

   .... Finished loop over pairs

 PNO Occupation Number Statistics: 
  | Av. % of trace(Dij) retained        ...  99.951116058907
  | Av. % of trace(Dip) retained        ...  99.962151030115
  | Av. % of trace(Dpq) retained        ...  99.815354762044
  | sigma^2 in % of trace(Dij) retained ...   1.35e-05
  | sigma^2 in % of trace(Dip) retained ...   2.32e-22
  | sigma^2 in % of trace(Dpq) retained ...   6.37e-02
  | Av. % of trace(Di) retained         ...  99.999751729348
  | Av. % of trace(Dp) retained         ... 100.000000000000
  | sigma^2 in % of trace(Di) retained  ...   4.14e-27
  | sigma^2 in % of trace(Dp) retained  ...   5.05e-28
 Distributions of % trace(Dij) recovered:
  |       >= 99.9  ...     3 (100.0 % of all IJ-pairs)
 Distributions of % trace(Dip) recovered:
  |       >= 99.9  ...     4 (100.0 % of all IP-pairs)
 Distributions of % trace(Dpq) recovered:
  |       >= 99.9  ...     2 ( 66.7 % of all PQ-pairs)
  |   [99.0, 99.9) ...     1 ( 33.3 % of all PQ-pairs)
 Distributions of % trace(Di) recovered :
  |       >= 99.9  ...     2 (100.0 % of all I-pairs )
 Distributions of % trace(Dp) recovered :
  |       >= 99.9  ...     2 (100.0 % of all P-pairs )

                       ===========================
                         12 OF   12 PAIRS ARE KEPT
                       ===========================

 Initial PAO correlation energy (all pairs)    ...  -0.1674009481 Eh
 Energy constituents in PAO basis (Eh):
  | Vijab(+0) ...  -0.0564067805
  | Viab (-1) ...  -0.0625333137
  | Vab  (-2) ...  -0.0073887025
  | Va   (-1) ...  -0.0000411895
  | Vija (+1) ...  -0.0121385087
  | Via  (+0) ...  -0.0288924533
 Initial PNO correlation energy                ...  -0.1661069501 Eh
 Energy constituents in PNO basis (Eh):
  | Vijab(+0) ...  -0.0563206328 (err=  0.0000861477)
  | Viab (-1) ...  -0.0614216843 (err=  0.0011116294)
  | Vab  (-2) ...  -0.0072924564 (err=  0.0000962461)
  | Va   (-1) ...  -0.0000411953 (err= -0.0000000058)
  | Vija (+1) ...  -0.0121373467 (err=  0.0000011620)
  | Via  (+0) ...  -0.0288936347 (err= -0.0000011815)
 Sum of total truncation errors ...   0.0012939980 Eh
  | Pair screening ...   0.0000000000 Eh
  | PNO truncation ...   0.0012939980 Eh

 UMP2 correlation energy (PAO) ...  -0.1594395620
  | alpha-alpha ...  -0.0321998948 (NP_aa=    6)
  | alpha-beta  ...  -0.1224392849 (NP_ab=    8)
  | beta -beta  ...  -0.0048003824 (NP_bb=    1)
 UMP2 correlation energy (PNO) ...  -0.1580680076
  | alpha-alpha ...  -0.0314067740 (err=  0.0007931207, NP_aa=    6)
  | alpha-beta  ...  -0.1218652691 (err=  0.0005740158, NP_ab=    8)
  | beta -beta  ...  -0.0047959646 (err=  0.0000044178, NP_bb=    1)
 Sum of total UMP2 truncation errors ...   0.0013715543 Eh
  | Pair screening ...   0.0000000000 Eh
  | PNO truncation ...   0.0013715543 Eh
 Timing for NEV-PNO construction (sec.)
  | Intermediate construction  ..            0.000
  | Amplitude construction     ..            0.001
  | Total time                 ..            0.001
 Making pair pair interaction lists ...      ok
 Total size for 2-ext PNO integrals ...      0.2 MB
Checking the number of SOMO/SOMO doubles PNOs ...  No PNOs should be truncated!

--------------------------------
LOCAL RI TRANSFORMATION (VABPAO)
--------------------------------

Number of PAOs:      82
Basis functions:     80 (20 shells)
Aux. functions:     290 (62 shells)
Use SHARK:           on

Processing maps (0.0 sec)
Average map sizes:
   Aux shells -> PAOs             82.0
   PAOs       -> AO shells        20.0

Calculating integrals (0.1 sec, 14.880 MB)
Finished
-----------------------------
LOCAL RI TRANSFORMATION (IJV)
-----------------------------

Orbital window:       1 to 4
Basis functions:     80 (20 shells)
Aux. functions:     290 (62 shells)
Use SHARK:           on

Processing maps (0.0 sec)
Average map sizes:
   Aux shells -> MOs(i)            4.0
   Aux shells -> MOs(j)            4.0
   MOs        -> AO shells        20.0

Calculating integrals (0.1 sec, 0.039 MB)
Sorting integrals (0.0 sec, 0.035 MB)
Total time for the integral transformation: 0.1 sec


-------------------------------------
Pair Pair Term precalculation with     
RI-(ij|mn) and (im|jn) transformation  
ON THE FLY                             
-------------------------------------

   IBatch   1 (of   1)              ... done (    0.145 sec)
Total EXT                           ...           0.145 sec

---------------------
RI-PNO TRANSFORMATION
---------------------

Total Number of PNOs                   ...   580
Total Number of IJ-PNOs                ...   216
Total Number of IP-PNOs                ...   184
Total Number of PQ-PNOs                ...   180
Total Number of IJ-pairs               ...     4
Total Number of PI-pairs               ...     4
Total Number of PQ-pairs               ...     4
Average number of PNOs per pair        ...    48
Maximal number of PNOs per pair        ...    62
>> Statistics for ij-pairs..
   #pairs with  1 -  5 PNOs   :    0
   #pairs with  6 - 10 PNOs   :    0
   #pairs with 11 - 15 PNOs   :    0
   #pairs with 16 - 20 PNOs   :    0
   #pairs with 21 - 25 PNOs   :    0
   #pairs with 26 - 30 PNOs   :    0
   #pairs with 31 - 35 PNOs   :    0
   #pairs with 36 - 40 PNOs   :    0
   #pairs with 41 - 45 PNOs   :    0
   #pairs with 46 - 50 PNOs   :    2
   #pairs with 56 - 60 PNOs   :    2
>> Statistics for ip-pairs..
   #pairs with  1 -  5 PNOs   :    0
   #pairs with  6 - 10 PNOs   :    0
   #pairs with 11 - 15 PNOs   :    0
   #pairs with 16 - 20 PNOs   :    0
   #pairs with 21 - 25 PNOs   :    0
   #pairs with 26 - 30 PNOs   :    0
   #pairs with 31 - 35 PNOs   :    0
   #pairs with 36 - 40 PNOs   :    0
   #pairs with 41 - 45 PNOs   :    0
   #pairs with 46 - 50 PNOs   :    4
>> Statistics for pq-pairs..
   #pairs with  1 -  5 PNOs   :    0
   #pairs with  6 - 10 PNOs   :    0
   #pairs with 11 - 15 PNOs   :    0
   #pairs with 16 - 20 PNOs   :    0
   #pairs with 21 - 25 PNOs   :    0
   #pairs with 26 - 30 PNOs   :    2
   #pairs with 31 - 35 PNOs   :    0
   #pairs with 36 - 40 PNOs   :    0
   #pairs with 41 - 45 PNOs   :    0
   #pairs with 46 - 50 PNOs   :    0
   #pairs with 61 - 65 PNOs   :    2

Generation of (ij|ab)[P] integrals            ... on
Generation of (ia|bc)[P],(ja|bc)[P] integrals ... on
Storage of 3 and 4 external integrals         ... on
Generation of ALL (ka|bc)[P] integrals        ... on
Keep RI integrals in memory                   ... off

Ibatch:  1 (of  1)
Starting 2-4 index PNO integral generation ... done

Timings:
Total PNO integral transformation time     ...          0.281 sec
Size of the 3-external file                ...        10 MB
Size of the 4-external file                ...        71 MB
Size of the IKJL file                      ...         0 MB
Size of the all 3-external file            ...        20 MB
Size of the 1-external file                ...         0 MB

Size of the PAO/PNO coefficient matrices   ...       0.4 MB

Making pair/pair overlap matrices          ... done (    0.002 sec)
Size of the pair overlap file              ...       2.0 MB
Total # unrestricted pairs ...         15
  # of alpha-alpha pairs   ...          6
  # of alpha-beta pairs    ...          8
  # of beta-beta pairs     ...          1
Constructing the guess amplitudes          ... done (    0.001 sec)

-------------------------
FINAL STARTUP INFORMATION
-------------------------

E(0)                                       ...    -74.810967565
E(SL-UMP2 in NEV-PNO space)                ...     -0.159439562
Initial E(tot)                             ...    -74.970407127
<T|T>                                      ...      0.025020098
Number of unrestricted pairs included      ... 15
Total number of pairs                      ... 15
----------------------------------------------------------
                     OPEN-SHELL COUPLED CLUSTER ITERATIONS
----------------------------------------------------------

Number of PNO amplitudes to be optimized        ...            34756
Number of canonical amplitudes for strong pairs ...            86333
Untruncated number of canonical amplitudes      ...            86333

Iter       E(tot)           E(Corr)          Delta-E          Residual     Time
  0    -74.975569039     -0.163229920     -0.003790359      0.011173802    1.05
                           *** Turning on DIIS ***
  1    -74.986872393     -0.174533275     -0.011303354      0.004749837    1.04
  2    -74.990545869     -0.178206750     -0.003673476      0.002511120    1.05
  3    -74.991138614     -0.178799495     -0.000592745      0.001368225    1.05
  4    -74.991303306     -0.178964187     -0.000164692      0.000589088    1.05
  5    -74.991340602     -0.179001483     -0.000037296      0.000228038    1.05
  6    -74.991349973     -0.179010854     -0.000009371      0.000064024    1.04
  7    -74.991349325     -0.179010206      0.000000648      0.000021000    1.05
  8    -74.991348972     -0.179009853      0.000000353      0.000007229    1.05
  9    -74.991348873     -0.179009754      0.000000099      0.000002028    1.05
 10    -74.991348844     -0.179009726      0.000000028      0.000000510    1.05
               --- The CCSD iterations have converged ---

E(0)                                       ...    -74.810967565
E(CORR)(strong-pairs)                      ...     -0.179009726
E(CORR)(weak-pairs)                        ...     -0.001371554
E(CORR)(corrected)                         ...     -0.180381280
E(TOT)                                     ...    -74.991348844
Singles norm <S|S>**1/2                    ...      0.039519888 ( 0.025949107, 0.013570781)  
T1 diagnostic                              ...      0.016133927                              
<S**2>(linearized)                         ...      2.0002339 (ideal value:      2.0000000)

----------------------
LARGEST PNO AMPLITUDES
----------------------
   4a->  5a   2b->  6b       0.024635
   4a->  5a   1b->  6b       0.024635
   3a->  5a   2b->  6b       0.024635
   3a->  5a   1b->  6b       0.024635
   3a-> 10a   2b->  3b       0.023108
   3a-> 10a   1b->  3b       0.023108
   4a-> 10a   2b->  4b       0.023108
   4a-> 10a   1b->  4b       0.023108
   1a->  9a   1b->  9b       0.020822
   2a->  9a   2b->  9b       0.020822
   2a-> 11a   2b->  4b       0.020684
   2a-> 10a   2b->  3b       0.020684
   1a-> 11a   1b->  4b       0.020167
   1a-> 10a   1b->  3b       0.020167
   3a->  9a   2b->  4b       0.020051
   3a->  9a   1b->  4b       0.020051

Total # unrestricted pairs ...          0
  # of alpha-alpha pairs   ...          0
  # of alpha-beta pairs    ...          0
  # of beta-beta pairs     ...          0

-----------------------------------------------
DLPNO BASED TRIPLES CORRECTION
-----------------------------------------------

Singles multiplier          ...  1.000000
Fragment selection                          .... not used
TCutTNO                     ... 1.000e-09
TCutMP2Pairs                ... 1.000e-05
TCutDOStrong                ... 2.000e-02
TCutMKNStrong               ... 1.000e-02
TCutDOWeak                  ... 4.000e-02
TCutMKNWeak                 ... 1.000e-01
NTCutTNO                    ... 1

Number of Triples that are to be computed         ...        28

 . . . . . . . . .
10% done  
20% done  
30% done  
40% done  
50% done  
60% done  
70% done  
          Batch   1   done (      0.200 sec)

Triples-Correction TCutTNO=   1.000e-09 (NWeakPairs = 0  1  2  3)  -0.003806898623    0.000000000000    0.000000000000    0.000000000000
Triples-Correction  -0.003806898623

Triples timings:
Total time                      ...     0.208 sec

Triples List generation         ...     0.000 sec
TNO generation                  ...     0.007 sec
Pair density generation         ...     0.000 sec
Look up tables                  ...     0.000 sec
Generating 3-index integrals    ...     0.134 sec
Make 4-ind.int. from 3-ind.int  ...     0.001 sec
Projecting amplitudes (D + S)   ...     0.007 sec
Sorting integrals for spin cases...     0.013 sec
Calculate W0/W1                 ...     0.035 sec
T0 Energy contr.(sum over a,b,c)...     0.010 sec

Everything after 3-index in T0  ...     0.143 sec

Energy contribution AAA         ...     0.006 sec
Energy contribution AAB         ...     0.038 sec
Energy contribution ABB         ...     0.013 sec
Energy contribution BBB         ...     0.000 sec
prep                ...     0.000 sec
makeTTNO            ...     0.006 sec
copyij              ...     0.000 sec
copyil              ...     0.000 sec
transposeij         ...     0.000 sec
newMatInDoubleProj  ...     0.000 sec
BlasInDoubleProj    ...     0.004 sec
ProjSingles         ...     0.001 sec
ProjDoubles         ...     0.006 sec
overall Doubles for projection      ... 168
used Doubles for projection         ... 168


Number of Triples   (0, 1, 2, 3 weak pairs; overall):     14       0       0       0  (    14)
Number of Atoms     (0, 1, 2, 3 weak pairs; overall):    1.0     0.0     0.0     0.0  (     1)
Number of PAOs      (0, 1, 2, 3 weak pairs; overall):   82.0     0.0     0.0     0.0  (    80)
Number of AuxFcns   (0, 1, 2, 3 weak pairs; overall):  290.0     0.0     0.0     0.0  (   290)
Number of TNOs (0, 1, 2, 3 weak pairs         ):   75.3     0.0     0.0     0.0
Aver. Number of NTNO, Atoms, PAOs, AuxFcns / Triples:     14    75.3     1.0    82.0   290.0

Triples Correction (T)                     ...     -0.003806899
    alpha-alpha-alpha ... -0.000210775 (  5.5%)
    alpha-alpha-beta  ... -0.002787115 ( 73.2%)
    alpha-beta -beta  ... -0.000809008 ( 21.3%)
    beta -beta -beta  ...  0.000000000 ( -0.0%)
Final correlation energy                   ...     -0.184188178
E(CCSD)                                    ...    -74.991348844
E(CCSD(T))                                 ...    -74.995155743

----------------------------
STATISTICS FOR PAIR-ENERGIES
----------------------------
Minimum, maximum and average ratios of UMP and CCSD pair-energies ... 0.94, 1.15, 1.06


------------------------------------------------------------------------------- 
                                     TIMINGS                                   
------------------------------------------------------------------------------- 


Total execution time                   ...       13.479 sec

Localization of occupied MO's          ...        0.298 sec (  2.2%)
Fock Matrix Formation                  ...        0.221 sec (  1.6%)
Differential overlap integrals         ...        0.028 sec (  0.2%)
Organizing maps                        ...        0.002 sec (  0.0%)
RI 3-index integral generations        ...        0.296 sec (  2.2%)
RI-PNO integral transformation         ...        0.494 sec (  3.7%)
Initial Guess                          ...        0.078 sec (  0.6%)
DIIS Solver                            ...        0.016 sec (  0.1%)
State Vector Update                    ...        0.001 sec (  0.0%)
Sigma-vector construction              ...       11.534 sec ( 85.6%)
  <D|H|D>(0-ext)                       ...        0.013 sec (  0.1% of sigma)
  <D|H|D>(2-ext)                       ...        5.052 sec ( 43.8% of sigma)
  <D|H|D>(4-ext)                       ...        1.342 sec ( 11.6% of sigma)
  <D|H|D>(4-ext-corr)                  ...        4.667 sec ( 40.5% of sigma)
  CCSD doubles correction              ...        0.010 sec (  0.1% of sigma)
  <S|H|S>                              ...        0.045 sec (  0.4% of sigma)
  <S|H|D>(1-ext)                       ...        0.008 sec (  0.1% of sigma)
  <S|H|D>(3-ext)                       ...        0.033 sec (  0.3% of sigma)
  Fock-dressing                        ...        0.191 sec (  1.7% of sigma)
  Singles amplitudes                   ...        0.004 sec (  0.0% of sigma)
  (ik|jl)-dressing                     ...        0.014 sec (  0.1% of sigma)
  (ij|ab),(ia|jb)-dressing             ...        0.106 sec (  0.9% of sigma)
Total Time for computing (T)           ...        0.209 sec (  1.6% of ALL)


Maximum memory used throughout the entire MDCI-calculation: 196.4 MB

-------------------------   --------------------
FINAL SINGLE POINT ENERGY       -74.995155743109
-------------------------   --------------------


                            ***************************************
                            *     ORCA property calculations      *
                            ***************************************


  WARNING: The energy has been calculated at the MDCI level but the densities
           used in the property calculations are still SCF densities
           MDCI response densities have not been calculated 
           use %mdci Density linearized end
           or  %mdci Density unrelaxed end
           or  %mdci Density orbopt end

                                    ---------------------
                                    Active property flags
                                    ---------------------
   (+) Dipole Moment


------------------------------------------------------------------------------
                       ORCA ELECTRIC PROPERTIES CALCULATION
------------------------------------------------------------------------------

Dipole Moment Calculation                       ... on
Quadrupole Moment Calculation                   ... off
Polarizability Calculation                      ... off
GBWName                                         ... orca.gbw
Electron density                                ... orca.scfp
The origin for moment calculation is the CENTER OF MASS  = ( 0.000000,  0.000000  0.000000)

-------------
DIPOLE MOMENT
-------------
                                X             Y             Z
Electronic contribution:     -0.00000       0.00000      -0.00000
Nuclear contribution   :      0.00000       0.00000       0.00000
                        -----------------------------------------
Total Dipole Moment    :     -0.00000       0.00000      -0.00000
                        -----------------------------------------
Magnitude (a.u.)       :      0.00000
Magnitude (Debye)      :      0.00000



--------------------
Rotational spectrum 
--------------------
 
Rotational constants in cm-1:     0.000000     0.000000     0.000000 
Rotational constants in MHz :     0.000000     0.000000     0.000000 

 Dipole components along the rotational axes: 
x,y,z [a.u.] :    -0.000000     0.000000    -0.000000 
x,y,z [Debye]:    -0.000000     0.000000    -0.000000 

 

Timings for individual modules:

Sum of individual times         ...       16.338 sec (=   0.272 min)
GTO integral calculation        ...        0.226 sec (=   0.004 min)   1.4 %
SCF iterations                  ...        2.479 sec (=   0.041 min)  15.2 %
MDCI module                     ...       13.633 sec (=   0.227 min)  83.4 %
                             ****ORCA TERMINATED NORMALLY****
TOTAL RUN TIME: 0 days 0 hours 0 minutes 16 seconds 577 msec
