 **********************************************************************
                          MRCC program system
 **********************************************************************
 
                              Written by
 Mihaly Kallay, Peter R. Nagy, David Mester, Zoltan Rolik, Gyula Samu,
   Jozsef Csontos, Jozsef Csoka, P. Bernat Szabo, Laszlo Gyevi-Nagy,
    Bence Hegely, Istvan Ladjanszki, Lorant Szegedy, Bence Ladoczki,
       Klara Petrov, Mate Farkas, Pal D. Mezei, and Adam Ganyecz
 
        Department of Physical Chemistry and Materials Science
            Budapest University of Technology and Economics
                  Budapest P.O.Box 91, H-1521 Hungary
 
                              www.mrcc.hu
 
                    Release date: February 22, 2020

 ************************ 2021-12-06 19:11:59 *************************
 Executing minp...

 Reading input from MINP...
 
 Input file:
 
calc=LNO-CCSD(T)
scftype=rhf
verbosity=3
mem=490GB
symm=off
unit=angs
lccrest=restart
scfmaxit=1000
scfalg=locfit1

lcorthr=Tight
ccmaxit=400
usedisk=0
ccsdalg=dfdirect
ccsdthreads=4
ccsdmkl=thr
ptthreads=4

charge=-26
core=48

basis=special
bse_AVQZ
bse_CVQZ_g
bse_CVQZ_g
bse_CVQZ_g
bse_AVQZ
bse_AVQZ
bse_AVQZ
bse_AVQZ
bse_AVQZ
bse_AVQZ
bse_AVQZ
bse_AVQZ
bse_AVQZ
bse_AVQZ
bse_AVQZ
bse_AVQZ
bse_AVQZ
bse_CVQZ_g
bse_CVQZ_g
bse_AVQZ
bse_AVQZ
bse_AVQZ
bse_AVQZ
bse_AVQZ
bse_AVQZ
bse_AVQZ
bse_AVQZ
bse_AVQZ
nothing
nothing
nothing
nothing
nothing
nothing
nothing
nothing
nothing
nothing
nothing
nothing
nothing
nothing
nothing
nothing
nothing
nothing
nothing
nothing
nothing
nothing
nothing
nothing
nothing
nothing
nothing
nothing
nothing
nothing
nothing
nothing
nothing
nothing
nothing
nothing
nothing
nothing
nothing
nothing
nothing
nothing
nothing
nothing
nothing
nothing
nothing
nothing
nothing
nothing
nothing
nothing
nothing
nothing
nothing
nothing
nothing
nothing
nothing
nothing
nothing
nothing
nothing
nothing
nothing
nothing
nothing
nothing
nothing
nothing
nothing
nothing
nothing
nothing
nothing
nothing
nothing
nothing
nothing
nothing
nothing
nothing
nothing
nothing
nothing
nothing
nothing
nothing
nothing
nothing
nothing
nothing
nothing
nothing
nothing
nothing
nothing
nothing
nothing
nothing
nothing
nothing
nothing
nothing
nothing
nothing
nothing
nothing
nothing
nothing
nothing
nothing
nothing
nothing
nothing
nothing
nothing
nothing
nothing
nothing
nothing
nothing
nothing
nothing
nothing
nothing
nothing
nothing
nothing
nothing
nothing
nothing
nothing
nothing
nothing
nothing
nothing
nothing
nothing
nothing
nothing
nothing
nothing
nothing
nothing
nothing
nothing
nothing
nothing
nothing
nothing
nothing
nothing
nothing
nothing
nothing
nothing
nothing
nothing
nothing
nothing
nothing

basis_sm=special
STO-3G
STO-3G
STO-3G
STO-3G
STO-3G
STO-3G
STO-3G
STO-3G
STO-3G
STO-3G
STO-3G
STO-3G
STO-3G
STO-3G
STO-3G
STO-3G
STO-3G
STO-3G
STO-3G
STO-3G
STO-3G
STO-3G
STO-3G
STO-3G
STO-3G
STO-3G
STO-3G
STO-3G
nothing
nothing
nothing
nothing
nothing
nothing
nothing
nothing
nothing
nothing
nothing
nothing
nothing
nothing
nothing
nothing
nothing
nothing
nothing
nothing
nothing
nothing
nothing
nothing
nothing
nothing
nothing
nothing
nothing
nothing
nothing
nothing
nothing
nothing
nothing
nothing
nothing
nothing
nothing
nothing
nothing
nothing
nothing
nothing
nothing
nothing
nothing
nothing
nothing
nothing
nothing
nothing
nothing
nothing
nothing
nothing
nothing
nothing
nothing
nothing
nothing
nothing
nothing
nothing
nothing
nothing
nothing
nothing
nothing
nothing
nothing
nothing
nothing
nothing
nothing
nothing
nothing
nothing
nothing
nothing
nothing
nothing
nothing
nothing
nothing
nothing
nothing
nothing
nothing
nothing
nothing
nothing
nothing
nothing
nothing
nothing
nothing
nothing
nothing
nothing
nothing
nothing
nothing
nothing
nothing
nothing
nothing
nothing
nothing
nothing
nothing
nothing
nothing
nothing
nothing
nothing
nothing
nothing
nothing
nothing
nothing
nothing
nothing
nothing
nothing
nothing
nothing
nothing
nothing
nothing
nothing
nothing
nothing
nothing
nothing
nothing
nothing
nothing
nothing
nothing
nothing
nothing
nothing
nothing
nothing
nothing
nothing
nothing
nothing
nothing
nothing
nothing
nothing
nothing
nothing
nothing
nothing
nothing
nothing
nothing
nothing
nothing

dfbasis_scf=special
bse_AVQZ_autoaux
bse_CVQZ_g_autoaux
bse_CVQZ_g_autoaux
bse_CVQZ_g_autoaux
bse_AVQZ_autoaux
bse_AVQZ_autoaux
bse_AVQZ_autoaux
bse_AVQZ_autoaux
bse_AVQZ_autoaux
bse_AVQZ_autoaux
bse_AVQZ_autoaux
bse_AVQZ_autoaux
bse_AVQZ_autoaux
bse_AVQZ_autoaux
bse_AVQZ_autoaux
bse_AVQZ_autoaux
bse_AVQZ_autoaux
bse_CVQZ_g_autoaux
bse_CVQZ_g_autoaux
bse_AVQZ_autoaux
bse_AVQZ_autoaux
bse_AVQZ_autoaux
bse_AVQZ_autoaux
bse_AVQZ_autoaux
bse_AVQZ_autoaux
bse_AVQZ_autoaux
bse_AVQZ_autoaux
bse_AVQZ_autoaux
nothing
nothing
nothing
nothing
nothing
nothing
nothing
nothing
nothing
nothing
nothing
nothing
nothing
nothing
nothing
nothing
nothing
nothing
nothing
nothing
nothing
nothing
nothing
nothing
nothing
nothing
nothing
nothing
nothing
nothing
nothing
nothing
nothing
nothing
nothing
nothing
nothing
nothing
nothing
nothing
nothing
nothing
nothing
nothing
nothing
nothing
nothing
nothing
nothing
nothing
nothing
nothing
nothing
nothing
nothing
nothing
nothing
nothing
nothing
nothing
nothing
nothing
nothing
nothing
nothing
nothing
nothing
nothing
nothing
nothing
nothing
nothing
nothing
nothing
nothing
nothing
nothing
nothing
nothing
nothing
nothing
nothing
nothing
nothing
nothing
nothing
nothing
nothing
nothing
nothing
nothing
nothing
nothing
nothing
nothing
nothing
nothing
nothing
nothing
nothing
nothing
nothing
nothing
nothing
nothing
nothing
nothing
nothing
nothing
nothing
nothing
nothing
nothing
nothing
nothing
nothing
nothing
nothing
nothing
nothing
nothing
nothing
nothing
nothing
nothing
nothing
nothing
nothing
nothing
nothing
nothing
nothing
nothing
nothing
nothing
nothing
nothing
nothing
nothing
nothing
nothing
nothing
nothing
nothing
nothing
nothing
nothing
nothing
nothing
nothing
nothing
nothing
nothing
nothing
nothing
nothing
nothing
nothing
nothing
nothing
nothing
nothing

dfbasis_cor=special
bse_AVQZ_autoaux
bse_CVQZ_g_autoaux
bse_CVQZ_g_autoaux
bse_CVQZ_g_autoaux
bse_AVQZ_autoaux
bse_AVQZ_autoaux
bse_AVQZ_autoaux
bse_AVQZ_autoaux
bse_AVQZ_autoaux
bse_AVQZ_autoaux
bse_AVQZ_autoaux
bse_AVQZ_autoaux
bse_AVQZ_autoaux
bse_AVQZ_autoaux
bse_AVQZ_autoaux
bse_AVQZ_autoaux
bse_AVQZ_autoaux
bse_CVQZ_g_autoaux
bse_CVQZ_g_autoaux
bse_AVQZ_autoaux
bse_AVQZ_autoaux
bse_AVQZ_autoaux
bse_AVQZ_autoaux
bse_AVQZ_autoaux
bse_AVQZ_autoaux
bse_AVQZ_autoaux
bse_AVQZ_autoaux
bse_AVQZ_autoaux
nothing
nothing
nothing
nothing
nothing
nothing
nothing
nothing
nothing
nothing
nothing
nothing
nothing
nothing
nothing
nothing
nothing
nothing
nothing
nothing
nothing
nothing
nothing
nothing
nothing
nothing
nothing
nothing
nothing
nothing
nothing
nothing
nothing
nothing
nothing
nothing
nothing
nothing
nothing
nothing
nothing
nothing
nothing
nothing
nothing
nothing
nothing
nothing
nothing
nothing
nothing
nothing
nothing
nothing
nothing
nothing
nothing
nothing
nothing
nothing
nothing
nothing
nothing
nothing
nothing
nothing
nothing
nothing
nothing
nothing
nothing
nothing
nothing
nothing
nothing
nothing
nothing
nothing
nothing
nothing
nothing
nothing
nothing
nothing
nothing
nothing
nothing
nothing
nothing
nothing
nothing
nothing
nothing
nothing
nothing
nothing
nothing
nothing
nothing
nothing
nothing
nothing
nothing
nothing
nothing
nothing
nothing
nothing
nothing
nothing
nothing
nothing
nothing
nothing
nothing
nothing
nothing
nothing
nothing
nothing
nothing
nothing
nothing
nothing
nothing
nothing
nothing
nothing
nothing
nothing
nothing
nothing
nothing
nothing
nothing
nothing
nothing
nothing
nothing
nothing
nothing
nothing
nothing
nothing
nothing
nothing
nothing
nothing
nothing
nothing
nothing
nothing
nothing
nothing
nothing
nothing
nothing
nothing
nothing
nothing
nothing
nothing

ecp=special
none
none
none
none
none
none
none
none
none
none
none
none
none
none
none
none
none
none
none
none
none
none
none
none
none
none
none
none
ECP-22
ECP-22
ECP-22
ECP-22
ECP-22
ECP-22
ECP-22
ECP-22
ECP-22
ECP-22
ECP-22
ECP-22
ECP-22
ECP-22
ECP-22
ECP-22
ECP-22
ECP-22
ECP-22
ECP-22
ECP-22
ECP-22
ECP-22
ECP-22
ECP-22
ECP-22
ECP-22
ECP-22
ECP-22
ECP-22
ECP-22
ECP-22
ECP-22
ECP-22
ECP-22
ECP-22
ECP-22
ECP-22
ECP-22
ECP-22
ECP-22
ECP-22
ECP-22
ECP-22
ECP-22
ECP-22
ECP-22
ECP-22
ECP-22
ECP-22
ECP-22
ECP-22
ECP-22
ECP-22
ECP-22
ECP-22
ECP-22
ECP-22
ECP-22
ECP-22
ECP-22
ECP-22
ECP-22
ECP-22
ECP-22
ECP-22
ECP-22
ECP-22
ECP-22
ECP-22
ECP-22
ECP-22
ECP-22
ECP-22
ECP-22
ECP-22
ECP-22
ECP-22
ECP-22
ECP-22
ECP-22
ECP-22
ECP-22
ECP-22
ECP-22
ECP-22
ECP-22
ECP-22
ECP-22
ECP-22
ECP-22
ECP-22
ECP-22
ECP-22
ECP-22
ECP-22
ECP-22
ECP-22
ECP-22
ECP-22
ECP-22
ECP-22
ECP-22
ECP-22
ECP-22
ECP-22
ECP-22
ECP-22
ECP-22
ECP-22
ECP-22
ECP-22
ECP-22
ECP-22
ECP-22
ECP-22
ECP-22
ECP-22
ECP-22
ECP-22
ECP-22
ECP-22
ECP-22
ECP-22
ECP-22
ECP-22
ECP-22
ECP-22
ECP-22
ECP-22
ECP-22
ECP-22
ECP-22
ECP-22
ECP-22
ECP-22
ECP-22
ECP-22
ECP-22
ECP-22
ECP-22
ECP-22
ECP-22
ECP-22
ECP-22
ECP-22
ECP-22
ECP-22
ECP-22
ECP-22
ECP-22
ECP-22
ECP-22
ECP-22
ECP-22
ECP-22
ECP-22
ECP-22
ECP-22
ECP-22
ECP-22
ECP-22

unit=angs
geom=xyz
190
Ti5O23ECP162
O     0.00000000000    0.00000000000    0.00000000000
Ti    0.00000000000    1.48054676798   -1.27209143018
Ti    0.00000000000   -1.48054676798   -1.27209143018
Ti    0.00000000000    0.00000000000    1.98192821856
O    -0.00000000000    0.00000000000   -2.54418286035
O    -1.27209143018    1.48054676798    1.98192821856
O     1.27209143018    1.48054676798    1.98192821856
O     1.27209143018   -1.48054676798    1.98192821856
O    -1.27209143018   -1.48054676798    1.98192821856
O    -1.98192821856    1.48054676798   -1.27209143018
O     1.98192821856    1.48054676798   -1.27209143018
O     1.98192821856   -1.48054676798   -1.27209143018
O    -1.98192821856   -1.48054676798   -1.27209143018
O     0.00000000000    2.96109353596    0.00000000000
O     0.00000000000   -2.96109353596    0.00000000000
O    -3.25401964873    0.00000000000    0.70983678838
O     3.25401964873    0.00000000000    0.70983678838
Ti   -3.25401964873    0.00000000000   -1.27209143018
Ti    3.25401964873    0.00000000000   -1.27209143018
O    -0.00000000000    2.96109353596   -2.54418286035
O    -0.00000000000   -2.96109353596   -2.54418286035
O    -0.00000000000    0.00000000000    3.96385643712
O    -3.25401964873    0.00000000000   -3.25401964873
O     3.25401964873    0.00000000000   -3.25401964873
O    -4.52611107891    1.48054676798   -1.27209143018
O     4.52611107891    1.48054676798   -1.27209143018
O     4.52611107891   -1.48054676798   -1.27209143018
O    -4.52611107891   -1.48054676798   -1.27209143018
Ti    0.00000000000    2.96109353596    1.98192821856
Ti    0.00000000000   -2.96109353596    1.98192821856
Ti   -3.25401964873    1.48054676798    1.98192821856
Ti    3.25401964873    1.48054676798    1.98192821856
Ti    3.25401964873   -1.48054676798    1.98192821856
Ti   -3.25401964873   -1.48054676798    1.98192821856
Ti    0.00000000000    0.00000000000   -4.52611107891
Ti   -3.25401964873    2.96109353596   -1.27209143018
Ti    3.25401964873    2.96109353596   -1.27209143018
Ti    3.25401964873   -2.96109353596   -1.27209143018
Ti   -3.25401964873   -2.96109353596   -1.27209143018
Ti    0.00000000000    4.44164030394   -1.27209143018
Ti    0.00000000000   -4.44164030394   -1.27209143018
Ti    0.00000000000    2.96109353596   -4.52611107891
Ti    0.00000000000   -2.96109353596   -4.52611107891
Ti    0.00000000000    1.48054676798    5.23594786729
Ti    0.00000000000   -1.48054676798    5.23594786729
Ti   -3.25401964873    1.48054676798   -4.52611107891
Ti    3.25401964873    1.48054676798   -4.52611107891
Ti    3.25401964873   -1.48054676798   -4.52611107891
Ti   -3.25401964873   -1.48054676798   -4.52611107891
Ti   -3.25401964873    4.44164030394    1.98192821856
Ti    3.25401964873    4.44164030394    1.98192821856
Ti    3.25401964873   -4.44164030394    1.98192821856
Ti   -3.25401964873   -4.44164030394    1.98192821856
Ti   -3.25401964873    0.00000000000    5.23594786729
Ti    3.25401964873    0.00000000000    5.23594786729
Ti    0.00000000000    5.92218707193    1.98192821856
Ti    0.00000000000   -5.92218707193    1.98192821856
Ti   -6.50803929747    1.48054676798   -1.27209143018
Ti    6.50803929747    1.48054676798   -1.27209143018
Ti    6.50803929747   -1.48054676798   -1.27209143018
Ti   -6.50803929747   -1.48054676798   -1.27209143018
Ti   -6.50803929747    0.00000000000    1.98192821856
Ti    6.50803929747    0.00000000000    1.98192821856
Ti   -3.25401964873    2.96109353596    5.23594786729
Ti    3.25401964873    2.96109353596    5.23594786729
Ti    3.25401964873   -2.96109353596    5.23594786729
Ti   -3.25401964873   -2.96109353596    5.23594786729
Ti    0.00000000000    4.44164030394    5.23594786729
Ti    0.00000000000   -4.44164030394    5.23594786729
Ti   -3.25401964873    5.92218707193   -1.27209143018
Ti    3.25401964873    5.92218707193   -1.27209143018
Ti    3.25401964873   -5.92218707193   -1.27209143018
Ti   -3.25401964873   -5.92218707193   -1.27209143018
Ti   -3.25401964873    4.44164030394   -4.52611107891
Ti    3.25401964873    4.44164030394   -4.52611107891
Ti    3.25401964873   -4.44164030394   -4.52611107891
Ti   -3.25401964873   -4.44164030394   -4.52611107891
Ti   -6.50803929747    2.96109353596    1.98192821856
Ti    6.50803929747    2.96109353596    1.98192821856
Ti    6.50803929747   -2.96109353596    1.98192821856
Ti   -6.50803929747   -2.96109353596    1.98192821856
Ti    0.00000000000    5.92218707193   -4.52611107891
Ti    0.00000000000   -5.92218707193   -4.52611107891
Ti    0.00000000000    7.40273383991   -1.27209143018
Ti    0.00000000000   -7.40273383991   -1.27209143018
Ti    0.00000000000    1.48054676798   -7.78013072764
Ti    0.00000000000   -1.48054676798   -7.78013072764
Ti   -6.50803929747    0.00000000000   -4.52611107891
Ti    6.50803929747    0.00000000000   -4.52611107891
Ti   -6.50803929747    4.44164030394   -1.27209143018
Ti    6.50803929747    4.44164030394   -1.27209143018
Ti    6.50803929747   -4.44164030394   -1.27209143018
Ti   -6.50803929747   -4.44164030394   -1.27209143018
Ti   -3.25401964873    7.40273383991    1.98192821856
Ti    3.25401964873    7.40273383991    1.98192821856
Ti    3.25401964873   -7.40273383991    1.98192821856
Ti   -3.25401964873   -7.40273383991    1.98192821856
Ti   -3.25401964873    0.00000000000   -7.78013072764
Ti    3.25401964873    0.00000000000   -7.78013072764
Ti   -6.50803929747    2.96109353596   -4.52611107891
Ti    6.50803929747    2.96109353596   -4.52611107891
Ti    6.50803929747   -2.96109353596   -4.52611107891
Ti   -6.50803929747   -2.96109353596   -4.52611107891
Ti   -6.50803929747    1.48054676798    5.23594786729
Ti    6.50803929747    1.48054676798    5.23594786729
Ti    6.50803929747   -1.48054676798    5.23594786729
Ti   -6.50803929747   -1.48054676798    5.23594786729
Ti    0.00000000000    0.00000000000    8.48996751602
Ti   -3.25401964873    5.92218707193    5.23594786729
Ti    3.25401964873    5.92218707193    5.23594786729
Ti    3.25401964873   -5.92218707193    5.23594786729
Ti   -3.25401964873   -5.92218707193    5.23594786729
Ti   -3.25401964873    2.96109353596   -7.78013072764
Ti    3.25401964873    2.96109353596   -7.78013072764
Ti    3.25401964873   -2.96109353596   -7.78013072764
Ti   -3.25401964873   -2.96109353596   -7.78013072764
Ti    0.00000000000    4.44164030394   -7.78013072764
Ti    0.00000000000   -4.44164030394   -7.78013072764
Ti    0.00000000000    2.96109353596    8.48996751602
Ti    0.00000000000   -2.96109353596    8.48996751602
Ti   -6.50803929747    5.92218707193    1.98192821856
Ti    6.50803929747    5.92218707193    1.98192821856
Ti    6.50803929747   -5.92218707193    1.98192821856
Ti   -6.50803929747   -5.92218707193    1.98192821856
Ti    0.00000000000    7.40273383991    5.23594786729
Ti    0.00000000000   -7.40273383991    5.23594786729
Ti    0.00000000000    8.88328060789    1.98192821856
Ti    0.00000000000   -8.88328060789    1.98192821856
Ti   -3.25401964873    1.48054676798    8.48996751602
Ti    3.25401964873    1.48054676798    8.48996751602
Ti    3.25401964873   -1.48054676798    8.48996751602
Ti   -3.25401964873   -1.48054676798    8.48996751602
Ti   -3.25401964873    7.40273383991   -4.52611107891
Ti    3.25401964873    7.40273383991   -4.52611107891
Ti    3.25401964873   -7.40273383991   -4.52611107891
Ti   -3.25401964873   -7.40273383991   -4.52611107891
Ti   -6.50803929747    4.44164030394    5.23594786729
Ti    6.50803929747    4.44164030394    5.23594786729
Ti    6.50803929747   -4.44164030394    5.23594786729
Ti   -6.50803929747   -4.44164030394    5.23594786729
Ti   -3.25401964873    8.88328060789   -1.27209143018
Ti    3.25401964873    8.88328060789   -1.27209143018
Ti    3.25401964873   -8.88328060789   -1.27209143018
Ti   -3.25401964873   -8.88328060789   -1.27209143018
Ti   -9.76205894620    0.00000000000   -1.27209143018
Ti    9.76205894620    0.00000000000   -1.27209143018
Ti   -6.50803929747    5.92218707193   -4.52611107891
Ti    6.50803929747    5.92218707193   -4.52611107891
Ti    6.50803929747   -5.92218707193   -4.52611107891
Ti   -6.50803929747   -5.92218707193   -4.52611107891
Ti   -6.50803929747    7.40273383991   -1.27209143018
Ti    6.50803929747    7.40273383991   -1.27209143018
Ti    6.50803929747   -7.40273383991   -1.27209143018
Ti   -6.50803929747   -7.40273383991   -1.27209143018
Ti    0.00000000000    8.88328060789   -4.52611107891
Ti    0.00000000000   -8.88328060789   -4.52611107891
Ti   -9.76205894620    1.48054676798    1.98192821856
Ti    9.76205894620    1.48054676798    1.98192821856
Ti    9.76205894620   -1.48054676798    1.98192821856
Ti   -9.76205894620   -1.48054676798    1.98192821856
Ti   -6.50803929747    1.48054676798   -7.78013072764
Ti    6.50803929747    1.48054676798   -7.78013072764
Ti    6.50803929747   -1.48054676798   -7.78013072764
Ti   -6.50803929747   -1.48054676798   -7.78013072764
Ti   -9.76205894620    2.96109353596   -1.27209143018
Ti    9.76205894620    2.96109353596   -1.27209143018
Ti    9.76205894620   -2.96109353596   -1.27209143018
Ti   -9.76205894620   -2.96109353596   -1.27209143018
Ti   -3.25401964873    5.92218707193   -7.78013072764
Ti    3.25401964873    5.92218707193   -7.78013072764
Ti    3.25401964873   -5.92218707193   -7.78013072764
Ti   -3.25401964873   -5.92218707193   -7.78013072764
Ti    0.00000000000    7.40273383991   -7.78013072764
Ti    0.00000000000   -7.40273383991   -7.78013072764
Ti   -9.76205894620    1.48054676798   -4.52611107891
Ti    9.76205894620    1.48054676798   -4.52611107891
Ti    9.76205894620   -1.48054676798   -4.52611107891
Ti   -9.76205894620   -1.48054676798   -4.52611107891
Ti   -9.76205894620    4.44164030394    1.98192821856
Ti    9.76205894620    4.44164030394    1.98192821856
Ti    9.76205894620   -4.44164030394    1.98192821856
Ti   -9.76205894620   -4.44164030394    1.98192821856
Ti   -9.76205894620    5.92218707193   -1.27209143018
Ti    9.76205894620    5.92218707193   -1.27209143018
Ti    9.76205894620   -5.92218707193   -1.27209143018
Ti   -9.76205894620   -5.92218707193   -1.27209143018
Ti   -9.76205894620    4.44164030394   -4.52611107891
Ti    9.76205894620    4.44164030394   -4.52611107891
Ti    9.76205894620   -4.44164030394   -4.52611107891
Ti   -9.76205894620   -4.44164030394   -4.52611107891

qmmm=Amber
pointcharges
10810
      0.00000000000    2.96109353596    1.98192821856    4.00000000000
      0.00000000000   -2.96109353596    1.98192821856    4.00000000000
     -3.25401964873    1.48054676798    1.98192821856    4.00000000000
      3.25401964873    1.48054676798    1.98192821856    4.00000000000
      3.25401964873   -1.48054676798    1.98192821856    4.00000000000
     -3.25401964873   -1.48054676798    1.98192821856    4.00000000000
     -3.25401964873    2.96109353596    0.70983678838   -2.00000000000
      3.25401964873    2.96109353596    0.70983678838   -2.00000000000
      3.25401964873   -2.96109353596    0.70983678838   -2.00000000000
     -3.25401964873   -2.96109353596    0.70983678838   -2.00000000000
      0.00000000000    0.00000000000   -4.52611107891    4.00000000000
     -3.25401964873    2.96109353596   -1.27209143018    4.00000000000
      3.25401964873    2.96109353596   -1.27209143018    4.00000000000
      3.25401964873   -2.96109353596   -1.27209143018    4.00000000000
     -3.25401964873   -2.96109353596   -1.27209143018    4.00000000000
     -3.25401964873    0.00000000000    3.25401964873   -2.00000000000
      3.25401964873    0.00000000000    3.25401964873   -2.00000000000
      0.00000000000    4.44164030394   -1.27209143018    4.00000000000
      0.00000000000   -4.44164030394   -1.27209143018    4.00000000000
     -1.27209143018    1.48054676798   -4.52611107891   -2.00000000000
      1.27209143018    1.48054676798   -4.52611107891   -2.00000000000
      1.27209143018   -1.48054676798   -4.52611107891   -2.00000000000
     -1.27209143018   -1.48054676798   -4.52611107891   -2.00000000000
     -0.00000000000    2.96109353596    3.96385643712   -2.00000000000
     -0.00000000000   -2.96109353596    3.96385643712   -2.00000000000
     -1.27209143018    4.44164030394    1.98192821856   -2.00000000000
      1.27209143018    4.44164030394    1.98192821856   -2.00000000000
      1.27209143018   -4.44164030394    1.98192821856   -2.00000000000
     -1.27209143018   -4.44164030394    1.98192821856   -2.00000000000
     -1.98192821856    4.44164030394   -1.27209143018   -2.00000000000
      1.98192821856    4.44164030394   -1.27209143018   -2.00000000000
      1.98192821856   -4.44164030394   -1.27209143018   -2.00000000000
     -1.98192821856   -4.44164030394   -1.27209143018   -2.00000000000
      0.00000000000    2.96109353596   -4.52611107891    4.00000000000
      0.00000000000   -2.96109353596   -4.52611107891    4.00000000000
      0.00000000000    1.48054676798    5.23594786729    4.00000000000
      0.00000000000   -1.48054676798    5.23594786729    4.00000000000
     -3.25401964873    2.96109353596    3.25401964873   -2.00000000000
      3.25401964873    2.96109353596    3.25401964873   -2.00000000000
      3.25401964873   -2.96109353596    3.25401964873   -2.00000000000
     -3.25401964873   -2.96109353596    3.25401964873   -2.00000000000
     -3.25401964873    2.96109353596   -3.25401964873   -2.00000000000
      3.25401964873    2.96109353596   -3.25401964873   -2.00000000000
      3.25401964873   -2.96109353596   -3.25401964873   -2.00000000000
     -3.25401964873   -2.96109353596   -3.25401964873   -2.00000000000
     -3.25401964873    1.48054676798   -4.52611107891    4.00000000000
      3.25401964873    1.48054676798   -4.52611107891    4.00000000000
      3.25401964873   -1.48054676798   -4.52611107891    4.00000000000
     -3.25401964873   -1.48054676798   -4.52611107891    4.00000000000
     -1.98192821856    1.48054676798    5.23594786729   -2.00000000000
      1.98192821856    1.48054676798    5.23594786729   -2.00000000000
      1.98192821856   -1.48054676798    5.23594786729   -2.00000000000
     -1.98192821856   -1.48054676798    5.23594786729   -2.00000000000
     -5.23594786729    1.48054676798    1.98192821856   -2.00000000000
      5.23594786729    1.48054676798    1.98192821856   -2.00000000000
      5.23594786729   -1.48054676798    1.98192821856   -2.00000000000
     -5.23594786729   -1.48054676798    1.98192821856   -2.00000000000
     -3.25401964873    4.44164030394    1.98192821856    4.00000000000
      3.25401964873    4.44164030394    1.98192821856    4.00000000000
      3.25401964873   -4.44164030394    1.98192821856    4.00000000000
     -3.25401964873   -4.44164030394    1.98192821856    4.00000000000
      0.00000000000    5.92218707193    0.00000000000   -2.00000000000
      0.00000000000   -5.92218707193    0.00000000000   -2.00000000000
     -3.25401964873    0.00000000000    5.23594786729    4.00000000000
      3.25401964873    0.00000000000    5.23594786729    4.00000000000
      0.00000000000    5.92218707193    1.98192821856    4.00000000000
      0.00000000000   -5.92218707193    1.98192821856    4.00000000000
     -0.00000000000    5.92218707193   -2.54418286035   -2.00000000000
     -0.00000000000   -5.92218707193   -2.54418286035   -2.00000000000
     -4.52611107891    4.44164030394   -1.27209143018   -2.00000000000
      4.52611107891    4.44164030394   -1.27209143018   -2.00000000000
      4.52611107891   -4.44164030394   -1.27209143018   -2.00000000000
     -4.52611107891   -4.44164030394   -1.27209143018   -2.00000000000
     -1.27209143018    4.44164030394   -4.52611107891   -2.00000000000
      1.27209143018    4.44164030394   -4.52611107891   -2.00000000000
      1.27209143018   -4.44164030394   -4.52611107891   -2.00000000000
     -1.27209143018   -4.44164030394   -4.52611107891   -2.00000000000
      0.00000000000    0.00000000000    6.50803929747   -2.00000000000
     -6.50803929747    0.00000000000    0.00000000000   -2.00000000000
      6.50803929747    0.00000000000    0.00000000000   -2.00000000000
      0.00000000000    0.00000000000   -6.50803929747   -2.00000000000
     -3.25401964873    0.00000000000   -5.79820250908   -2.00000000000
      3.25401964873    0.00000000000   -5.79820250908   -2.00000000000
     -3.25401964873    5.92218707193    0.70983678838   -2.00000000000
      3.25401964873    5.92218707193    0.70983678838   -2.00000000000
      3.25401964873   -5.92218707193    0.70983678838   -2.00000000000
     -3.25401964873   -5.92218707193    0.70983678838   -2.00000000000
     -6.50803929747    1.48054676798   -1.27209143018    4.00000000000
      6.50803929747    1.48054676798   -1.27209143018    4.00000000000
      6.50803929747   -1.48054676798   -1.27209143018    4.00000000000
     -6.50803929747   -1.48054676798   -1.27209143018    4.00000000000
     -6.50803929747    0.00000000000    1.98192821856    4.00000000000
      6.50803929747    0.00000000000    1.98192821856    4.00000000000
     -3.25401964873    2.96109353596    5.23594786729    4.00000000000
      3.25401964873    2.96109353596    5.23594786729    4.00000000000
      3.25401964873   -2.96109353596    5.23594786729    4.00000000000
     -3.25401964873   -2.96109353596    5.23594786729    4.00000000000
      0.00000000000    4.44164030394    5.23594786729    4.00000000000
      0.00000000000   -4.44164030394    5.23594786729    4.00000000000
     -3.25401964873    5.92218707193   -1.27209143018    4.00000000000
      3.25401964873    5.92218707193   -1.27209143018    4.00000000000
      3.25401964873   -5.92218707193   -1.27209143018    4.00000000000
     -3.25401964873   -5.92218707193   -1.27209143018    4.00000000000
     -6.50803929747    0.00000000000   -2.54418286035   -2.00000000000
      6.50803929747    0.00000000000   -2.54418286035   -2.00000000000
     -4.52611107891    1.48054676798    5.23594786729   -2.00000000000
      4.52611107891    1.48054676798    5.23594786729   -2.00000000000
      4.52611107891   -1.48054676798    5.23594786729   -2.00000000000
     -4.52611107891   -1.48054676798    5.23594786729   -2.00000000000
     -5.23594786729    1.48054676798   -4.52611107891   -2.00000000000
      5.23594786729    1.48054676798   -4.52611107891   -2.00000000000
      5.23594786729   -1.48054676798   -4.52611107891   -2.00000000000
     -5.23594786729   -1.48054676798   -4.52611107891   -2.00000000000
     -0.00000000000    5.92218707193    3.96385643712   -2.00000000000
     -0.00000000000   -5.92218707193    3.96385643712   -2.00000000000
     -3.25401964873    4.44164030394   -4.52611107891    4.00000000000
      3.25401964873    4.44164030394   -4.52611107891    4.00000000000
      3.25401964873   -4.44164030394   -4.52611107891    4.00000000000
     -3.25401964873   -4.44164030394   -4.52611107891    4.00000000000
     -1.98192821856    4.44164030394    5.23594786729   -2.00000000000
      1.98192821856    4.44164030394    5.23594786729   -2.00000000000
      1.98192821856   -4.44164030394    5.23594786729   -2.00000000000
     -1.98192821856   -4.44164030394    5.23594786729   -2.00000000000
     -5.23594786729    4.44164030394    1.98192821856   -2.00000000000
      5.23594786729    4.44164030394    1.98192821856   -2.00000000000
      5.23594786729   -4.44164030394    1.98192821856   -2.00000000000
     -5.23594786729   -4.44164030394    1.98192821856   -2.00000000000
      0.00000000000    2.96109353596    6.50803929747   -2.00000000000
      0.00000000000   -2.96109353596    6.50803929747   -2.00000000000
     -6.50803929747    2.96109353596    0.00000000000   -2.00000000000
      6.50803929747    2.96109353596    0.00000000000   -2.00000000000
      6.50803929747   -2.96109353596    0.00000000000   -2.00000000000
     -6.50803929747   -2.96109353596    0.00000000000   -2.00000000000
      0.00000000000    2.96109353596   -6.50803929747   -2.00000000000
      0.00000000000   -2.96109353596   -6.50803929747   -2.00000000000
     -3.25401964873    2.96109353596   -5.79820250908   -2.00000000000
      3.25401964873    2.96109353596   -5.79820250908   -2.00000000000
      3.25401964873   -2.96109353596   -5.79820250908   -2.00000000000
     -3.25401964873   -2.96109353596   -5.79820250908   -2.00000000000
     -6.50803929747    2.96109353596    1.98192821856    4.00000000000
      6.50803929747    2.96109353596    1.98192821856    4.00000000000
      6.50803929747   -2.96109353596    1.98192821856    4.00000000000
     -6.50803929747   -2.96109353596    1.98192821856    4.00000000000
      0.00000000000    5.92218707193   -4.52611107891    4.00000000000
      0.00000000000   -5.92218707193   -4.52611107891    4.00000000000
     -3.25401964873    5.92218707193    3.25401964873   -2.00000000000
      3.25401964873    5.92218707193    3.25401964873   -2.00000000000
      3.25401964873   -5.92218707193    3.25401964873   -2.00000000000
     -3.25401964873   -5.92218707193    3.25401964873   -2.00000000000
     -3.25401964873    5.92218707193   -3.25401964873   -2.00000000000
      3.25401964873    5.92218707193   -3.25401964873   -2.00000000000
      3.25401964873   -5.92218707193   -3.25401964873   -2.00000000000
     -3.25401964873   -5.92218707193   -3.25401964873   -2.00000000000
      0.00000000000    7.40273383991   -1.27209143018    4.00000000000
      0.00000000000   -7.40273383991   -1.27209143018    4.00000000000
     -6.50803929747    2.96109353596   -2.54418286035   -2.00000000000
      6.50803929747    2.96109353596   -2.54418286035   -2.00000000000
      6.50803929747   -2.96109353596   -2.54418286035   -2.00000000000
     -6.50803929747   -2.96109353596   -2.54418286035   -2.00000000000
     -6.50803929747    0.00000000000    3.96385643712   -2.00000000000
      6.50803929747    0.00000000000    3.96385643712   -2.00000000000
     -1.27209143018    7.40273383991    1.98192821856   -2.00000000000
      1.27209143018    7.40273383991    1.98192821856   -2.00000000000
      1.27209143018   -7.40273383991    1.98192821856   -2.00000000000
     -1.27209143018   -7.40273383991    1.98192821856   -2.00000000000
     -1.98192821856    7.40273383991   -1.27209143018   -2.00000000000
      1.98192821856    7.40273383991   -1.27209143018   -2.00000000000
      1.98192821856   -7.40273383991   -1.27209143018   -2.00000000000
     -1.98192821856   -7.40273383991   -1.27209143018   -2.00000000000
     -3.25401964873    0.00000000000    7.21787608585   -2.00000000000
      3.25401964873    0.00000000000    7.21787608585   -2.00000000000
      0.00000000000    1.48054676798   -7.78013072764    4.00000000000
      0.00000000000   -1.48054676798   -7.78013072764    4.00000000000
     -6.50803929747    0.00000000000   -4.52611107891    4.00000000000
      6.50803929747    0.00000000000   -4.52611107891    4.00000000000
     -6.50803929747    4.44164030394   -1.27209143018    4.00000000000
      6.50803929747    4.44164030394   -1.27209143018    4.00000000000
      6.50803929747   -4.44164030394   -1.27209143018    4.00000000000
     -6.50803929747   -4.44164030394   -1.27209143018    4.00000000000
     -7.78013072764    1.48054676798    1.98192821856   -2.00000000000
      7.78013072764    1.48054676798    1.98192821856   -2.00000000000
      7.78013072764   -1.48054676798    1.98192821856   -2.00000000000
     -7.78013072764   -1.48054676798    1.98192821856   -2.00000000000
     -1.98192821856    1.48054676798   -7.78013072764   -2.00000000000
      1.98192821856    1.48054676798   -7.78013072764   -2.00000000000
      1.98192821856   -1.48054676798   -7.78013072764   -2.00000000000
     -1.98192821856   -1.48054676798   -7.78013072764   -2.00000000000
     -6.50803929747    2.96109353596    3.96385643712   -2.00000000000
      6.50803929747    2.96109353596    3.96385643712   -2.00000000000
      6.50803929747   -2.96109353596    3.96385643712   -2.00000000000
     -6.50803929747   -2.96109353596    3.96385643712   -2.00000000000
     -4.52611107891    4.44164030394    5.23594786729   -2.00000000000
      4.52611107891    4.44164030394    5.23594786729   -2.00000000000
      4.52611107891   -4.44164030394    5.23594786729   -2.00000000000
     -4.52611107891   -4.44164030394    5.23594786729   -2.00000000000
     -5.23594786729    4.44164030394   -4.52611107891   -2.00000000000
      5.23594786729    4.44164030394   -4.52611107891   -2.00000000000
      5.23594786729   -4.44164030394   -4.52611107891   -2.00000000000
     -5.23594786729   -4.44164030394   -4.52611107891   -2.00000000000
     -3.25401964873    7.40273383991    1.98192821856    4.00000000000
      3.25401964873    7.40273383991    1.98192821856    4.00000000000
      3.25401964873   -7.40273383991    1.98192821856    4.00000000000
     -3.25401964873   -7.40273383991    1.98192821856    4.00000000000
     -3.25401964873    0.00000000000   -7.78013072764    4.00000000000
      3.25401964873    0.00000000000   -7.78013072764    4.00000000000
     -3.25401964873    2.96109353596    7.21787608585   -2.00000000000
      3.25401964873    2.96109353596    7.21787608585   -2.00000000000
      3.25401964873   -2.96109353596    7.21787608585   -2.00000000000
     -3.25401964873   -2.96109353596    7.21787608585   -2.00000000000
     -6.50803929747    2.96109353596   -4.52611107891    4.00000000000
      6.50803929747    2.96109353596   -4.52611107891    4.00000000000
      6.50803929747   -2.96109353596   -4.52611107891    4.00000000000
     -6.50803929747   -2.96109353596   -4.52611107891    4.00000000000
     -6.50803929747    1.48054676798    5.23594786729    4.00000000000
      6.50803929747    1.48054676798    5.23594786729    4.00000000000
      6.50803929747   -1.48054676798    5.23594786729    4.00000000000
     -6.50803929747   -1.48054676798    5.23594786729    4.00000000000
      0.00000000000    0.00000000000    8.48996751602    4.00000000000
     -3.25401964873    5.92218707193    5.23594786729    4.00000000000
      3.25401964873    5.92218707193    5.23594786729    4.00000000000
      3.25401964873   -5.92218707193    5.23594786729    4.00000000000
     -3.25401964873   -5.92218707193    5.23594786729    4.00000000000
     -1.27209143018    1.48054676798    8.48996751602   -2.00000000000
      1.27209143018    1.48054676798    8.48996751602   -2.00000000000
      1.27209143018   -1.48054676798    8.48996751602   -2.00000000000
     -1.27209143018   -1.48054676798    8.48996751602   -2.00000000000
     -8.48996751602    1.48054676798   -1.27209143018   -2.00000000000
      8.48996751602    1.48054676798   -1.27209143018   -2.00000000000
      8.48996751602   -1.48054676798   -1.27209143018   -2.00000000000
     -8.48996751602   -1.48054676798   -1.27209143018   -2.00000000000
     -4.52611107891    7.40273383991   -1.27209143018   -2.00000000000
      4.52611107891    7.40273383991   -1.27209143018   -2.00000000000
      4.52611107891   -7.40273383991   -1.27209143018   -2.00000000000
     -4.52611107891   -7.40273383991   -1.27209143018   -2.00000000000
     -1.27209143018    7.40273383991   -4.52611107891   -2.00000000000
      1.27209143018    7.40273383991   -4.52611107891   -2.00000000000
      1.27209143018   -7.40273383991   -4.52611107891   -2.00000000000
     -1.27209143018   -7.40273383991   -4.52611107891   -2.00000000000
      0.00000000000    5.92218707193    6.50803929747   -2.00000000000
      0.00000000000   -5.92218707193    6.50803929747   -2.00000000000
     -6.50803929747    5.92218707193    0.00000000000   -2.00000000000
      6.50803929747    5.92218707193    0.00000000000   -2.00000000000
      6.50803929747   -5.92218707193    0.00000000000   -2.00000000000
     -6.50803929747   -5.92218707193    0.00000000000   -2.00000000000
      0.00000000000    5.92218707193   -6.50803929747   -2.00000000000
      0.00000000000   -5.92218707193   -6.50803929747   -2.00000000000
      0.00000000000    8.88328060789    0.00000000000   -2.00000000000
      0.00000000000   -8.88328060789    0.00000000000   -2.00000000000
     -3.25401964873    5.92218707193   -5.79820250908   -2.00000000000
      3.25401964873    5.92218707193   -5.79820250908   -2.00000000000
      3.25401964873   -5.92218707193   -5.79820250908   -2.00000000000
     -3.25401964873   -5.92218707193   -5.79820250908   -2.00000000000
     -3.25401964873    2.96109353596   -7.78013072764    4.00000000000
      3.25401964873    2.96109353596   -7.78013072764    4.00000000000
      3.25401964873   -2.96109353596   -7.78013072764    4.00000000000
     -3.25401964873   -2.96109353596   -7.78013072764    4.00000000000
      0.00000000000    4.44164030394   -7.78013072764    4.00000000000
      0.00000000000   -4.44164030394   -7.78013072764    4.00000000000
      0.00000000000    2.96109353596    8.48996751602    4.00000000000
      0.00000000000   -2.96109353596    8.48996751602    4.00000000000
     -6.50803929747    5.92218707193    1.98192821856    4.00000000000
      6.50803929747    5.92218707193    1.98192821856    4.00000000000
      6.50803929747   -5.92218707193    1.98192821856    4.00000000000
     -6.50803929747   -5.92218707193    1.98192821856    4.00000000000
     -0.00000000000    0.00000000000   -9.05222215782   -2.00000000000
      0.00000000000    7.40273383991    5.23594786729    4.00000000000
      0.00000000000   -7.40273383991    5.23594786729    4.00000000000
      0.00000000000    8.88328060789    1.98192821856    4.00000000000
      0.00000000000   -8.88328060789    1.98192821856    4.00000000000
     -7.78013072764    1.48054676798   -4.52611107891   -2.00000000000
      7.78013072764    1.48054676798   -4.52611107891   -2.00000000000
      7.78013072764   -1.48054676798   -4.52611107891   -2.00000000000
     -7.78013072764   -1.48054676798   -4.52611107891   -2.00000000000
     -4.52611107891    1.48054676798   -7.78013072764   -2.00000000000
      4.52611107891    1.48054676798   -7.78013072764   -2.00000000000
      4.52611107891   -1.48054676798   -7.78013072764   -2.00000000000
     -4.52611107891   -1.48054676798   -7.78013072764   -2.00000000000
     -6.50803929747    5.92218707193   -2.54418286035   -2.00000000000
      6.50803929747    5.92218707193   -2.54418286035   -2.00000000000
      6.50803929747   -5.92218707193   -2.54418286035   -2.00000000000
     -6.50803929747   -5.92218707193   -2.54418286035   -2.00000000000
     -7.78013072764    4.44164030394    1.98192821856   -2.00000000000
      7.78013072764    4.44164030394    1.98192821856   -2.00000000000
      7.78013072764   -4.44164030394    1.98192821856   -2.00000000000
     -7.78013072764   -4.44164030394    1.98192821856   -2.00000000000
     -1.98192821856    4.44164030394   -7.78013072764   -2.00000000000
      1.98192821856    4.44164030394   -7.78013072764   -2.00000000000
      1.98192821856   -4.44164030394   -7.78013072764   -2.00000000000
     -1.98192821856   -4.44164030394   -7.78013072764   -2.00000000000
     -6.50803929747    0.00000000000    6.50803929747   -2.00000000000
      6.50803929747    0.00000000000    6.50803929747   -2.00000000000
     -6.50803929747    0.00000000000   -6.50803929747   -2.00000000000
      6.50803929747    0.00000000000   -6.50803929747   -2.00000000000
     -3.25401964873    1.48054676798    8.48996751602    4.00000000000
      3.25401964873    1.48054676798    8.48996751602    4.00000000000
      3.25401964873   -1.48054676798    8.48996751602    4.00000000000
     -3.25401964873   -1.48054676798    8.48996751602    4.00000000000
     -0.00000000000    8.88328060789   -2.54418286035   -2.00000000000
     -0.00000000000   -8.88328060789   -2.54418286035   -2.00000000000
     -3.25401964873    7.40273383991   -4.52611107891    4.00000000000
      3.25401964873    7.40273383991   -4.52611107891    4.00000000000
      3.25401964873   -7.40273383991   -4.52611107891    4.00000000000
     -3.25401964873   -7.40273383991   -4.52611107891    4.00000000000
     -1.98192821856    7.40273383991    5.23594786729   -2.00000000000
      1.98192821856    7.40273383991    5.23594786729   -2.00000000000
      1.98192821856   -7.40273383991    5.23594786729   -2.00000000000
     -1.98192821856   -7.40273383991    5.23594786729   -2.00000000000
     -5.23594786729    7.40273383991    1.98192821856   -2.00000000000
      5.23594786729    7.40273383991    1.98192821856   -2.00000000000
      5.23594786729   -7.40273383991    1.98192821856   -2.00000000000
     -5.23594786729   -7.40273383991    1.98192821856   -2.00000000000
     -6.50803929747    4.44164030394    5.23594786729    4.00000000000
      6.50803929747    4.44164030394    5.23594786729    4.00000000000
      6.50803929747   -4.44164030394    5.23594786729    4.00000000000
     -6.50803929747   -4.44164030394    5.23594786729    4.00000000000
     -3.25401964873    8.88328060789    0.70983678838   -2.00000000000
      3.25401964873    8.88328060789    0.70983678838   -2.00000000000
      3.25401964873   -8.88328060789    0.70983678838   -2.00000000000
     -3.25401964873   -8.88328060789    0.70983678838   -2.00000000000
     -0.00000000000    2.96109353596   -9.05222215782   -2.00000000000
     -0.00000000000   -2.96109353596   -9.05222215782   -2.00000000000
     -3.25401964873    8.88328060789   -1.27209143018    4.00000000000
      3.25401964873    8.88328060789   -1.27209143018    4.00000000000
      3.25401964873   -8.88328060789   -1.27209143018    4.00000000000
     -3.25401964873   -8.88328060789   -1.27209143018    4.00000000000
     -1.27209143018    4.44164030394    8.48996751602   -2.00000000000
      1.27209143018    4.44164030394    8.48996751602   -2.00000000000
      1.27209143018   -4.44164030394    8.48996751602   -2.00000000000
     -1.27209143018   -4.44164030394    8.48996751602   -2.00000000000
     -8.48996751602    4.44164030394   -1.27209143018   -2.00000000000
      8.48996751602    4.44164030394   -1.27209143018   -2.00000000000
      8.48996751602   -4.44164030394   -1.27209143018   -2.00000000000
     -8.48996751602   -4.44164030394   -1.27209143018   -2.00000000000
     -6.50803929747    2.96109353596   -6.50803929747   -2.00000000000
      6.50803929747    2.96109353596   -6.50803929747   -2.00000000000
      6.50803929747   -2.96109353596   -6.50803929747   -2.00000000000
     -6.50803929747   -2.96109353596   -6.50803929747   -2.00000000000
     -9.76205894620    0.00000000000    0.70983678838   -2.00000000000
      9.76205894620    0.00000000000    0.70983678838   -2.00000000000
     -9.76205894620    0.00000000000   -1.27209143018    4.00000000000
      9.76205894620    0.00000000000   -1.27209143018    4.00000000000
     -6.50803929747    5.92218707193   -4.52611107891    4.00000000000
      6.50803929747    5.92218707193   -4.52611107891    4.00000000000
      6.50803929747   -5.92218707193   -4.52611107891    4.00000000000
     -6.50803929747   -5.92218707193   -4.52611107891    4.00000000000
     -6.50803929747    7.40273383991   -1.27209143018    4.00000000000
      6.50803929747    7.40273383991   -1.27209143018    4.00000000000
      6.50803929747   -7.40273383991   -1.27209143018    4.00000000000
     -6.50803929747   -7.40273383991   -1.27209143018    4.00000000000
      0.00000000000    8.88328060789   -4.52611107891    4.00000000000
      0.00000000000   -8.88328060789   -4.52611107891    4.00000000000
     -3.25401964873    8.88328060789   -3.25401964873   -2.00000000000
      3.25401964873    8.88328060789   -3.25401964873   -2.00000000000
      3.25401964873   -8.88328060789   -3.25401964873   -2.00000000000
     -3.25401964873   -8.88328060789   -3.25401964873   -2.00000000000
     -7.78013072764    4.44164030394   -4.52611107891   -2.00000000000
      7.78013072764    4.44164030394   -4.52611107891   -2.00000000000
      7.78013072764   -4.44164030394   -4.52611107891   -2.00000000000
     -7.78013072764   -4.44164030394   -4.52611107891   -2.00000000000
     -4.52611107891    4.44164030394   -7.78013072764   -2.00000000000
      4.52611107891    4.44164030394   -7.78013072764   -2.00000000000
      4.52611107891   -4.44164030394   -7.78013072764   -2.00000000000
     -4.52611107891   -4.44164030394   -7.78013072764   -2.00000000000
     -9.76205894620    1.48054676798    1.98192821856    4.00000000000
      9.76205894620    1.48054676798    1.98192821856    4.00000000000
      9.76205894620   -1.48054676798    1.98192821856    4.00000000000
     -9.76205894620   -1.48054676798    1.98192821856    4.00000000000
     -5.23594786729    7.40273383991   -4.52611107891   -2.00000000000
      5.23594786729    7.40273383991   -4.52611107891   -2.00000000000
      5.23594786729   -7.40273383991   -4.52611107891   -2.00000000000
     -5.23594786729   -7.40273383991   -4.52611107891   -2.00000000000
     -9.76205894620    2.96109353596    0.70983678838   -2.00000000000
      9.76205894620    2.96109353596    0.70983678838   -2.00000000000
      9.76205894620   -2.96109353596    0.70983678838   -2.00000000000
     -9.76205894620   -2.96109353596    0.70983678838   -2.00000000000
     -6.50803929747    1.48054676798   -7.78013072764    4.00000000000
      6.50803929747    1.48054676798   -7.78013072764    4.00000000000
      6.50803929747   -1.48054676798   -7.78013072764    4.00000000000
     -6.50803929747   -1.48054676798   -7.78013072764    4.00000000000
     -9.76205894620    2.96109353596   -1.27209143018    4.00000000000
      9.76205894620    2.96109353596   -1.27209143018    4.00000000000
      9.76205894620   -2.96109353596   -1.27209143018    4.00000000000
     -9.76205894620   -2.96109353596   -1.27209143018    4.00000000000
     -3.25401964873    0.00000000000    9.76205894620   -2.00000000000
      3.25401964873    0.00000000000    9.76205894620   -2.00000000000
     -9.76205894620    0.00000000000    3.25401964873   -2.00000000000
      9.76205894620    0.00000000000    3.25401964873   -2.00000000000
     -9.76205894620    0.00000000000   -3.25401964873   -2.00000000000
      9.76205894620    0.00000000000   -3.25401964873   -2.00000000000
     -3.25401964873    0.00000000000   -9.76205894620   -2.00000000000
      3.25401964873    0.00000000000   -9.76205894620   -2.00000000000
     -3.25401964873    5.92218707193   -7.78013072764    4.00000000000
      3.25401964873    5.92218707193   -7.78013072764    4.00000000000
      3.25401964873   -5.92218707193   -7.78013072764    4.00000000000
     -3.25401964873   -5.92218707193   -7.78013072764    4.00000000000
     -0.00000000000    0.00000000000   10.47189573458   -2.00000000000
     -9.76205894620    2.96109353596   -3.25401964873   -2.00000000000
      9.76205894620    2.96109353596   -3.25401964873   -2.00000000000
      9.76205894620   -2.96109353596   -3.25401964873   -2.00000000000
     -9.76205894620   -2.96109353596   -3.25401964873   -2.00000000000
      0.00000000000    7.40273383991   -7.78013072764    4.00000000000
      0.00000000000   -7.40273383991   -7.78013072764    4.00000000000
     -9.76205894620    1.48054676798   -4.52611107891    4.00000000000
      9.76205894620    1.48054676798   -4.52611107891    4.00000000000
      9.76205894620   -1.48054676798   -4.52611107891    4.00000000000
     -9.76205894620   -1.48054676798   -4.52611107891    4.00000000000
     -9.76205894620    4.44164030394    1.98192821856    4.00000000000
      9.76205894620    4.44164030394    1.98192821856    4.00000000000
      9.76205894620   -4.44164030394    1.98192821856    4.00000000000
     -9.76205894620   -4.44164030394    1.98192821856    4.00000000000
     -6.50803929747    0.00000000000   -9.05222215782   -2.00000000000
      6.50803929747    0.00000000000   -9.05222215782   -2.00000000000
    -11.03415037637    1.48054676798   -1.27209143018   -2.00000000000
     11.03415037637    1.48054676798   -1.27209143018   -2.00000000000
     11.03415037637   -1.48054676798   -1.27209143018   -2.00000000000
    -11.03415037637   -1.48054676798   -1.27209143018   -2.00000000000
     -9.76205894620    0.00000000000   -5.79820250908   -2.00000000000
      9.76205894620    0.00000000000   -5.79820250908   -2.00000000000
     -9.76205894620    5.92218707193   -1.27209143018    4.00000000000
      9.76205894620    5.92218707193   -1.27209143018    4.00000000000
      9.76205894620   -5.92218707193   -1.27209143018    4.00000000000
     -9.76205894620   -5.92218707193   -1.27209143018    4.00000000000
     -9.76205894620    4.44164030394   -4.52611107891    4.00000000000
      9.76205894620    4.44164030394   -4.52611107891    4.00000000000
      9.76205894620   -4.44164030394   -4.52611107891    4.00000000000
     -9.76205894620   -4.44164030394   -4.52611107891    4.00000000000
     -6.50803929747    5.92218707193    3.96385643712   -2.00000000000
      6.50803929747    5.92218707193    3.96385643712   -2.00000000000
      6.50803929747   -5.92218707193    3.96385643712   -2.00000000000
     -6.50803929747   -5.92218707193    3.96385643712   -2.00000000000
     -6.50803929747    2.96109353596    6.50803929747   -2.00000000000
      6.50803929747    2.96109353596    6.50803929747   -2.00000000000
      6.50803929747   -2.96109353596    6.50803929747   -2.00000000000
     -6.50803929747   -2.96109353596    6.50803929747   -2.00000000000
     -0.00000000000    8.88328060789    3.96385643712   -2.00000000000
     -0.00000000000   -8.88328060789    3.96385643712   -2.00000000000
     -3.25401964873    5.92218707193    7.21787608585   -2.00000000000
      3.25401964873    5.92218707193    7.21787608585   -2.00000000000
      3.25401964873   -5.92218707193    7.21787608585   -2.00000000000
     -3.25401964873   -5.92218707193    7.21787608585   -2.00000000000
     -3.25401964873    8.88328060789    3.25401964873   -2.00000000000
      3.25401964873    8.88328060789    3.25401964873   -2.00000000000
      3.25401964873   -8.88328060789    3.25401964873   -2.00000000000
     -3.25401964873   -8.88328060789    3.25401964873   -2.00000000000
     -5.23594786729    1.48054676798    8.48996751602   -2.00000000000
      5.23594786729    1.48054676798    8.48996751602   -2.00000000000
      5.23594786729   -1.48054676798    8.48996751602   -2.00000000000
     -5.23594786729   -1.48054676798    8.48996751602   -2.00000000000
     -8.48996751602    1.48054676798    5.23594786729   -2.00000000000
      8.48996751602    1.48054676798    5.23594786729   -2.00000000000
      8.48996751602   -1.48054676798    5.23594786729   -2.00000000000
     -8.48996751602   -1.48054676798    5.23594786729   -2.00000000000
     -3.25401964873    4.44164030394    8.48996751602    4.00000000000
      3.25401964873    4.44164030394    8.48996751602    4.00000000000
      3.25401964873   -4.44164030394    8.48996751602    4.00000000000
     -3.25401964873   -4.44164030394    8.48996751602    4.00000000000
     -4.52611107891    7.40273383991    5.23594786729   -2.00000000000
      4.52611107891    7.40273383991    5.23594786729   -2.00000000000
      4.52611107891   -7.40273383991    5.23594786729   -2.00000000000
     -4.52611107891   -7.40273383991    5.23594786729   -2.00000000000
      0.00000000000    5.92218707193    8.48996751602    4.00000000000
      0.00000000000   -5.92218707193    8.48996751602    4.00000000000
      0.00000000000   10.36382737587   -1.27209143018    4.00000000000
      0.00000000000  -10.36382737587   -1.27209143018    4.00000000000
     -1.27209143018   10.36382737587    1.98192821856   -2.00000000000
      1.27209143018   10.36382737587    1.98192821856   -2.00000000000
      1.27209143018  -10.36382737587    1.98192821856   -2.00000000000
     -1.27209143018  -10.36382737587    1.98192821856   -2.00000000000
     -1.98192821856   10.36382737587   -1.27209143018   -2.00000000000
      1.98192821856   10.36382737587   -1.27209143018   -2.00000000000
      1.98192821856  -10.36382737587   -1.27209143018   -2.00000000000
     -1.98192821856  -10.36382737587   -1.27209143018   -2.00000000000
     -6.50803929747    0.00000000000    8.48996751602    4.00000000000
      6.50803929747    0.00000000000    8.48996751602    4.00000000000
     -3.25401964873    2.96109353596    9.76205894620   -2.00000000000
      3.25401964873    2.96109353596    9.76205894620   -2.00000000000
      3.25401964873   -2.96109353596    9.76205894620   -2.00000000000
     -3.25401964873   -2.96109353596    9.76205894620   -2.00000000000
     -9.76205894620    2.96109353596    3.25401964873   -2.00000000000
      9.76205894620    2.96109353596    3.25401964873   -2.00000000000
      9.76205894620   -2.96109353596    3.25401964873   -2.00000000000
     -9.76205894620   -2.96109353596    3.25401964873   -2.00000000000
     -3.25401964873    2.96109353596   -9.76205894620   -2.00000000000
      3.25401964873    2.96109353596   -9.76205894620   -2.00000000000
      3.25401964873   -2.96109353596   -9.76205894620   -2.00000000000
     -3.25401964873   -2.96109353596   -9.76205894620   -2.00000000000
     -3.25401964873    8.88328060789    5.23594786729    4.00000000000
      3.25401964873    8.88328060789    5.23594786729    4.00000000000
      3.25401964873   -8.88328060789    5.23594786729    4.00000000000
     -3.25401964873   -8.88328060789    5.23594786729    4.00000000000
     -0.00000000000    5.92218707193   -9.05222215782   -2.00000000000
     -0.00000000000   -5.92218707193   -9.05222215782   -2.00000000000
     -0.00000000000    2.96109353596   10.47189573458   -2.00000000000
     -0.00000000000   -2.96109353596   10.47189573458   -2.00000000000
     -5.23594786729    4.44164030394    8.48996751602   -2.00000000000
      5.23594786729    4.44164030394    8.48996751602   -2.00000000000
      5.23594786729   -4.44164030394    8.48996751602   -2.00000000000
     -5.23594786729   -4.44164030394    8.48996751602   -2.00000000000
     -8.48996751602    4.44164030394    5.23594786729   -2.00000000000
      8.48996751602    4.44164030394    5.23594786729   -2.00000000000
      8.48996751602   -4.44164030394    5.23594786729   -2.00000000000
     -8.48996751602   -4.44164030394    5.23594786729   -2.00000000000
     -7.78013072764    7.40273383991    1.98192821856   -2.00000000000
      7.78013072764    7.40273383991    1.98192821856   -2.00000000000
      7.78013072764   -7.40273383991    1.98192821856   -2.00000000000
     -7.78013072764   -7.40273383991    1.98192821856   -2.00000000000
     -1.98192821856    7.40273383991   -7.78013072764   -2.00000000000
      1.98192821856    7.40273383991   -7.78013072764   -2.00000000000
      1.98192821856   -7.40273383991   -7.78013072764   -2.00000000000
     -1.98192821856   -7.40273383991   -7.78013072764   -2.00000000000
     -6.50803929747    5.92218707193    6.50803929747   -2.00000000000
      6.50803929747    5.92218707193    6.50803929747   -2.00000000000
      6.50803929747   -5.92218707193    6.50803929747   -2.00000000000
     -6.50803929747   -5.92218707193    6.50803929747   -2.00000000000
     -6.50803929747    5.92218707193   -6.50803929747   -2.00000000000
      6.50803929747    5.92218707193   -6.50803929747   -2.00000000000
      6.50803929747   -5.92218707193   -6.50803929747   -2.00000000000
     -6.50803929747   -5.92218707193   -6.50803929747   -2.00000000000
      0.00000000000    8.88328060789    6.50803929747   -2.00000000000
      0.00000000000   -8.88328060789    6.50803929747   -2.00000000000
     -6.50803929747    8.88328060789    0.00000000000   -2.00000000000
      6.50803929747    8.88328060789    0.00000000000   -2.00000000000
      6.50803929747   -8.88328060789    0.00000000000   -2.00000000000
     -6.50803929747   -8.88328060789    0.00000000000   -2.00000000000
      0.00000000000    8.88328060789   -6.50803929747   -2.00000000000
      0.00000000000   -8.88328060789   -6.50803929747   -2.00000000000
      0.00000000000    0.00000000000  -11.03415037637    4.00000000000
     -3.25401964873   10.36382737587    1.98192821856    4.00000000000
      3.25401964873   10.36382737587    1.98192821856    4.00000000000
      3.25401964873  -10.36382737587    1.98192821856    4.00000000000
     -3.25401964873  -10.36382737587    1.98192821856    4.00000000000
     -6.50803929747    4.44164030394   -7.78013072764    4.00000000000
      6.50803929747    4.44164030394   -7.78013072764    4.00000000000
      6.50803929747   -4.44164030394   -7.78013072764    4.00000000000
     -6.50803929747   -4.44164030394   -7.78013072764    4.00000000000
     -9.76205894620    0.00000000000    5.23594786729    4.00000000000
      9.76205894620    0.00000000000    5.23594786729    4.00000000000
     -3.25401964873    8.88328060789   -5.79820250908   -2.00000000000
      3.25401964873    8.88328060789   -5.79820250908   -2.00000000000
      3.25401964873   -8.88328060789   -5.79820250908   -2.00000000000
     -3.25401964873   -8.88328060789   -5.79820250908   -2.00000000000
     -6.50803929747    2.96109353596    8.48996751602    4.00000000000
      6.50803929747    2.96109353596    8.48996751602    4.00000000000
      6.50803929747   -2.96109353596    8.48996751602    4.00000000000
     -6.50803929747   -2.96109353596    8.48996751602    4.00000000000
     -6.50803929747    7.40273383991    5.23594786729    4.00000000000
      6.50803929747    7.40273383991    5.23594786729    4.00000000000
      6.50803929747   -7.40273383991    5.23594786729    4.00000000000
     -6.50803929747   -7.40273383991    5.23594786729    4.00000000000
     -6.50803929747    8.88328060789    1.98192821856    4.00000000000
      6.50803929747    8.88328060789    1.98192821856    4.00000000000
      6.50803929747   -8.88328060789    1.98192821856    4.00000000000
     -6.50803929747   -8.88328060789    1.98192821856    4.00000000000
     -1.27209143018    1.48054676798  -11.03415037637   -2.00000000000
      1.27209143018    1.48054676798  -11.03415037637   -2.00000000000
      1.27209143018   -1.48054676798  -11.03415037637   -2.00000000000
     -1.27209143018   -1.48054676798  -11.03415037637   -2.00000000000
     -6.50803929747    8.88328060789   -2.54418286035   -2.00000000000
      6.50803929747    8.88328060789   -2.54418286035   -2.00000000000
      6.50803929747   -8.88328060789   -2.54418286035   -2.00000000000
     -6.50803929747   -8.88328060789   -2.54418286035   -2.00000000000
     -1.27209143018    7.40273383991    8.48996751602   -2.00000000000
      1.27209143018    7.40273383991    8.48996751602   -2.00000000000
      1.27209143018   -7.40273383991    8.48996751602   -2.00000000000
     -1.27209143018   -7.40273383991    8.48996751602   -2.00000000000
     -8.48996751602    7.40273383991   -1.27209143018   -2.00000000000
      8.48996751602    7.40273383991   -1.27209143018   -2.00000000000
      8.48996751602   -7.40273383991   -1.27209143018   -2.00000000000
     -8.48996751602   -7.40273383991   -1.27209143018   -2.00000000000
     -4.52611107891   10.36382737587   -1.27209143018   -2.00000000000
      4.52611107891   10.36382737587   -1.27209143018   -2.00000000000
      4.52611107891  -10.36382737587   -1.27209143018   -2.00000000000
     -4.52611107891  -10.36382737587   -1.27209143018   -2.00000000000
     -1.27209143018   10.36382737587   -4.52611107891   -2.00000000000
      1.27209143018   10.36382737587   -4.52611107891   -2.00000000000
      1.27209143018  -10.36382737587   -4.52611107891   -2.00000000000
     -1.27209143018  -10.36382737587   -4.52611107891   -2.00000000000
      0.00000000000    2.96109353596  -11.03415037637    4.00000000000
      0.00000000000   -2.96109353596  -11.03415037637    4.00000000000
     -9.76205894620    5.92218707193    0.70983678838   -2.00000000000
      9.76205894620    5.92218707193    0.70983678838   -2.00000000000
      9.76205894620   -5.92218707193    0.70983678838   -2.00000000000
     -9.76205894620   -5.92218707193    0.70983678838   -2.00000000000
     -9.76205894620    2.96109353596    5.23594786729    4.00000000000
      9.76205894620    2.96109353596    5.23594786729    4.00000000000
      9.76205894620   -2.96109353596    5.23594786729    4.00000000000
     -9.76205894620   -2.96109353596    5.23594786729    4.00000000000
     -6.50803929747    2.96109353596   -9.05222215782   -2.00000000000
      6.50803929747    2.96109353596   -9.05222215782   -2.00000000000
      6.50803929747   -2.96109353596   -9.05222215782   -2.00000000000
     -6.50803929747   -2.96109353596   -9.05222215782   -2.00000000000
     -3.25401964873    1.48054676798  -11.03415037637    4.00000000000
      3.25401964873    1.48054676798  -11.03415037637    4.00000000000
      3.25401964873   -1.48054676798  -11.03415037637    4.00000000000
     -3.25401964873   -1.48054676798  -11.03415037637    4.00000000000
     -7.78013072764    1.48054676798    8.48996751602   -2.00000000000
      7.78013072764    1.48054676798    8.48996751602   -2.00000000000
      7.78013072764   -1.48054676798    8.48996751602   -2.00000000000
     -7.78013072764   -1.48054676798    8.48996751602   -2.00000000000
     -8.48996751602    1.48054676798   -7.78013072764   -2.00000000000
      8.48996751602    1.48054676798   -7.78013072764   -2.00000000000
      8.48996751602   -1.48054676798   -7.78013072764   -2.00000000000
     -8.48996751602   -1.48054676798   -7.78013072764   -2.00000000000
      0.00000000000   10.36382737587    5.23594786729    4.00000000000
      0.00000000000  -10.36382737587    5.23594786729    4.00000000000
     -7.78013072764    7.40273383991   -4.52611107891   -2.00000000000
      7.78013072764    7.40273383991   -4.52611107891   -2.00000000000
      7.78013072764   -7.40273383991   -4.52611107891   -2.00000000000
     -7.78013072764   -7.40273383991   -4.52611107891   -2.00000000000
     -4.52611107891    7.40273383991   -7.78013072764   -2.00000000000
      4.52611107891    7.40273383991   -7.78013072764   -2.00000000000
      4.52611107891   -7.40273383991   -7.78013072764   -2.00000000000
     -4.52611107891   -7.40273383991   -7.78013072764   -2.00000000000
     -6.50803929747    8.88328060789    3.96385643712   -2.00000000000
      6.50803929747    8.88328060789    3.96385643712   -2.00000000000
      6.50803929747   -8.88328060789    3.96385643712   -2.00000000000
     -6.50803929747   -8.88328060789    3.96385643712   -2.00000000000
     -3.25401964873    7.40273383991    8.48996751602    4.00000000000
      3.25401964873    7.40273383991    8.48996751602    4.00000000000
      3.25401964873   -7.40273383991    8.48996751602    4.00000000000
     -3.25401964873   -7.40273383991    8.48996751602    4.00000000000
     -9.76205894620    2.96109353596   -5.79820250908   -2.00000000000
      9.76205894620    2.96109353596   -5.79820250908   -2.00000000000
      9.76205894620   -2.96109353596   -5.79820250908   -2.00000000000
     -9.76205894620   -2.96109353596   -5.79820250908   -2.00000000000
     -3.25401964873   10.36382737587   -4.52611107891    4.00000000000
      3.25401964873   10.36382737587   -4.52611107891    4.00000000000
      3.25401964873  -10.36382737587   -4.52611107891    4.00000000000
     -3.25401964873  -10.36382737587   -4.52611107891    4.00000000000
     -1.98192821856   10.36382737587    5.23594786729   -2.00000000000
      1.98192821856   10.36382737587    5.23594786729   -2.00000000000
      1.98192821856  -10.36382737587    5.23594786729   -2.00000000000
     -1.98192821856  -10.36382737587    5.23594786729   -2.00000000000
     -5.23594786729   10.36382737587    1.98192821856   -2.00000000000
      5.23594786729   10.36382737587    1.98192821856   -2.00000000000
      5.23594786729  -10.36382737587    1.98192821856   -2.00000000000
     -5.23594786729  -10.36382737587    1.98192821856   -2.00000000000
      0.00000000000    1.48054676798   11.74398716476    4.00000000000
      0.00000000000   -1.48054676798   11.74398716476    4.00000000000
      0.00000000000   11.84437414385    0.00000000000   -2.00000000000
      0.00000000000  -11.84437414385    0.00000000000   -2.00000000000
     -3.25401964873    5.92218707193    9.76205894620   -2.00000000000
      3.25401964873    5.92218707193    9.76205894620   -2.00000000000
      3.25401964873   -5.92218707193    9.76205894620   -2.00000000000
     -3.25401964873   -5.92218707193    9.76205894620   -2.00000000000
     -9.76205894620    5.92218707193    3.25401964873   -2.00000000000
      9.76205894620    5.92218707193    3.25401964873   -2.00000000000
      9.76205894620   -5.92218707193    3.25401964873   -2.00000000000
     -9.76205894620   -5.92218707193    3.25401964873   -2.00000000000
     -9.76205894620    5.92218707193   -3.25401964873   -2.00000000000
      9.76205894620    5.92218707193   -3.25401964873   -2.00000000000
      9.76205894620   -5.92218707193   -3.25401964873   -2.00000000000
     -9.76205894620   -5.92218707193   -3.25401964873   -2.00000000000
     -3.25401964873    5.92218707193   -9.76205894620   -2.00000000000
      3.25401964873    5.92218707193   -9.76205894620   -2.00000000000
      3.25401964873   -5.92218707193   -9.76205894620   -2.00000000000
     -3.25401964873   -5.92218707193   -9.76205894620   -2.00000000000
     -3.25401964873    8.88328060789    7.21787608585   -2.00000000000
      3.25401964873    8.88328060789    7.21787608585   -2.00000000000
      3.25401964873   -8.88328060789    7.21787608585   -2.00000000000
     -3.25401964873   -8.88328060789    7.21787608585   -2.00000000000
     -6.50803929747    8.88328060789   -4.52611107891    4.00000000000
      6.50803929747    8.88328060789   -4.52611107891    4.00000000000
      6.50803929747   -8.88328060789   -4.52611107891    4.00000000000
     -6.50803929747   -8.88328060789   -4.52611107891    4.00000000000
    -11.03415037637    4.44164030394   -1.27209143018   -2.00000000000
     11.03415037637    4.44164030394   -1.27209143018   -2.00000000000
     11.03415037637   -4.44164030394   -1.27209143018   -2.00000000000
    -11.03415037637   -4.44164030394   -1.27209143018   -2.00000000000
     -1.27209143018    4.44164030394  -11.03415037637   -2.00000000000
      1.27209143018    4.44164030394  -11.03415037637   -2.00000000000
      1.27209143018   -4.44164030394  -11.03415037637   -2.00000000000
     -1.27209143018   -4.44164030394  -11.03415037637   -2.00000000000
     -1.98192821856    1.48054676798   11.74398716476   -2.00000000000
      1.98192821856    1.48054676798   11.74398716476   -2.00000000000
      1.98192821856   -1.48054676798   11.74398716476   -2.00000000000
     -1.98192821856   -1.48054676798   11.74398716476   -2.00000000000
    -11.74398716476    1.48054676798    1.98192821856   -2.00000000000
     11.74398716476    1.48054676798    1.98192821856   -2.00000000000
     11.74398716476   -1.48054676798    1.98192821856   -2.00000000000
    -11.74398716476   -1.48054676798    1.98192821856   -2.00000000000
      0.00000000000   11.84437414385    1.98192821856    4.00000000000
      0.00000000000  -11.84437414385    1.98192821856    4.00000000000
     -0.00000000000    5.92218707193   10.47189573458   -2.00000000000
     -0.00000000000   -5.92218707193   10.47189573458   -2.00000000000
     -0.00000000000   11.84437414385   -2.54418286035   -2.00000000000
     -0.00000000000  -11.84437414385   -2.54418286035   -2.00000000000
     -9.76205894620    0.00000000000    7.21787608585   -2.00000000000
      9.76205894620    0.00000000000    7.21787608585   -2.00000000000
     -3.25401964873    0.00000000000   11.74398716476    4.00000000000
      3.25401964873    0.00000000000   11.74398716476    4.00000000000
     -6.50803929747    5.92218707193    8.48996751602    4.00000000000
      6.50803929747    5.92218707193    8.48996751602    4.00000000000
      6.50803929747   -5.92218707193    8.48996751602    4.00000000000
     -6.50803929747   -5.92218707193    8.48996751602    4.00000000000
     -3.25401964873    8.88328060789   -7.78013072764    4.00000000000
      3.25401964873    8.88328060789   -7.78013072764    4.00000000000
      3.25401964873   -8.88328060789   -7.78013072764    4.00000000000
     -3.25401964873   -8.88328060789   -7.78013072764    4.00000000000
      0.00000000000    8.88328060789    8.48996751602    4.00000000000
      0.00000000000   -8.88328060789    8.48996751602    4.00000000000
    -11.03415037637    1.48054676798    5.23594786729   -2.00000000000
     11.03415037637    1.48054676798    5.23594786729   -2.00000000000
     11.03415037637   -1.48054676798    5.23594786729   -2.00000000000
    -11.03415037637   -1.48054676798    5.23594786729   -2.00000000000
     -5.23594786729    1.48054676798  -11.03415037637   -2.00000000000
      5.23594786729    1.48054676798  -11.03415037637   -2.00000000000
      5.23594786729   -1.48054676798  -11.03415037637   -2.00000000000
     -5.23594786729   -1.48054676798  -11.03415037637   -2.00000000000
     -3.25401964873   11.84437414385    0.70983678838   -2.00000000000
      3.25401964873   11.84437414385    0.70983678838   -2.00000000000
      3.25401964873  -11.84437414385    0.70983678838   -2.00000000000
     -3.25401964873  -11.84437414385    0.70983678838   -2.00000000000
     -6.50803929747   10.36382737587   -1.27209143018    4.00000000000
      6.50803929747   10.36382737587   -1.27209143018    4.00000000000
      6.50803929747  -10.36382737587   -1.27209143018    4.00000000000
     -6.50803929747  -10.36382737587   -1.27209143018    4.00000000000
     -6.50803929747    0.00000000000   10.47189573458   -2.00000000000
      6.50803929747    0.00000000000   10.47189573458   -2.00000000000
     -3.25401964873    4.44164030394  -11.03415037637    4.00000000000
      3.25401964873    4.44164030394  -11.03415037637    4.00000000000
      3.25401964873   -4.44164030394  -11.03415037637    4.00000000000
     -3.25401964873   -4.44164030394  -11.03415037637    4.00000000000
     -7.78013072764    4.44164030394    8.48996751602   -2.00000000000
      7.78013072764    4.44164030394    8.48996751602   -2.00000000000
      7.78013072764   -4.44164030394    8.48996751602   -2.00000000000
     -7.78013072764   -4.44164030394    8.48996751602   -2.00000000000
     -8.48996751602    4.44164030394   -7.78013072764   -2.00000000000
      8.48996751602    4.44164030394   -7.78013072764   -2.00000000000
      8.48996751602   -4.44164030394   -7.78013072764   -2.00000000000
     -8.48996751602   -4.44164030394   -7.78013072764   -2.00000000000
     -3.25401964873   11.84437414385   -1.27209143018    4.00000000000
      3.25401964873   11.84437414385   -1.27209143018    4.00000000000
      3.25401964873  -11.84437414385   -1.27209143018    4.00000000000
     -3.25401964873  -11.84437414385   -1.27209143018    4.00000000000
     -9.76205894620    7.40273383991    1.98192821856    4.00000000000
      9.76205894620    7.40273383991    1.98192821856    4.00000000000
      9.76205894620   -7.40273383991    1.98192821856    4.00000000000
     -9.76205894620   -7.40273383991    1.98192821856    4.00000000000
     -5.23594786729    7.40273383991    8.48996751602   -2.00000000000
      5.23594786729    7.40273383991    8.48996751602   -2.00000000000
      5.23594786729   -7.40273383991    8.48996751602   -2.00000000000
     -5.23594786729   -7.40273383991    8.48996751602   -2.00000000000
     -8.48996751602    7.40273383991    5.23594786729   -2.00000000000
      8.48996751602    7.40273383991    5.23594786729   -2.00000000000
      8.48996751602   -7.40273383991    5.23594786729   -2.00000000000
     -8.48996751602   -7.40273383991    5.23594786729   -2.00000000000
     -4.52611107891   10.36382737587    5.23594786729   -2.00000000000
      4.52611107891   10.36382737587    5.23594786729   -2.00000000000
      4.52611107891  -10.36382737587    5.23594786729   -2.00000000000
     -4.52611107891  -10.36382737587    5.23594786729   -2.00000000000
     -5.23594786729   10.36382737587   -4.52611107891   -2.00000000000
      5.23594786729   10.36382737587   -4.52611107891   -2.00000000000
      5.23594786729  -10.36382737587   -4.52611107891   -2.00000000000
     -5.23594786729  -10.36382737587   -4.52611107891   -2.00000000000
     -9.76205894620    0.00000000000   -7.78013072764    4.00000000000
      9.76205894620    0.00000000000   -7.78013072764    4.00000000000
     -0.00000000000   11.84437414385    3.96385643712   -2.00000000000
     -0.00000000000  -11.84437414385    3.96385643712   -2.00000000000
     -9.76205894620    2.96109353596    7.21787608585   -2.00000000000
      9.76205894620    2.96109353596    7.21787608585   -2.00000000000
      9.76205894620   -2.96109353596    7.21787608585   -2.00000000000
     -9.76205894620   -2.96109353596    7.21787608585   -2.00000000000
      0.00000000000    5.92218707193  -11.03415037637    4.00000000000
      0.00000000000   -5.92218707193  -11.03415037637    4.00000000000
     -3.25401964873    2.96109353596   11.74398716476    4.00000000000
      3.25401964873    2.96109353596   11.74398716476    4.00000000000
      3.25401964873   -2.96109353596   11.74398716476    4.00000000000
     -3.25401964873   -2.96109353596   11.74398716476    4.00000000000
      0.00000000000    4.44164030394   11.74398716476    4.00000000000
      0.00000000000   -4.44164030394   11.74398716476    4.00000000000
     -6.50803929747    7.40273383991   -7.78013072764    4.00000000000
      6.50803929747    7.40273383991   -7.78013072764    4.00000000000
      6.50803929747   -7.40273383991   -7.78013072764    4.00000000000
     -6.50803929747   -7.40273383991   -7.78013072764    4.00000000000
     -9.76205894620    5.92218707193    5.23594786729    4.00000000000
      9.76205894620    5.92218707193    5.23594786729    4.00000000000
      9.76205894620   -5.92218707193    5.23594786729    4.00000000000
     -9.76205894620   -5.92218707193    5.23594786729    4.00000000000
     -6.50803929747    5.92218707193   -9.05222215782   -2.00000000000
      6.50803929747    5.92218707193   -9.05222215782   -2.00000000000
      6.50803929747   -5.92218707193   -9.05222215782   -2.00000000000
     -6.50803929747   -5.92218707193   -9.05222215782   -2.00000000000
     -4.52611107891    1.48054676798   11.74398716476   -2.00000000000
      4.52611107891    1.48054676798   11.74398716476   -2.00000000000
      4.52611107891   -1.48054676798   11.74398716476   -2.00000000000
     -4.52611107891   -1.48054676798   11.74398716476   -2.00000000000
    -11.74398716476    1.48054676798   -4.52611107891   -2.00000000000
     11.74398716476    1.48054676798   -4.52611107891   -2.00000000000
     11.74398716476   -1.48054676798   -4.52611107891   -2.00000000000
    -11.74398716476   -1.48054676798   -4.52611107891   -2.00000000000
      0.00000000000   11.84437414385   -4.52611107891    4.00000000000
      0.00000000000  -11.84437414385   -4.52611107891    4.00000000000
     -6.50803929747    2.96109353596   10.47189573458   -2.00000000000
      6.50803929747    2.96109353596   10.47189573458   -2.00000000000
      6.50803929747   -2.96109353596   10.47189573458   -2.00000000000
     -6.50803929747   -2.96109353596   10.47189573458   -2.00000000000
     -0.00000000000    8.88328060789   -9.05222215782   -2.00000000000
     -0.00000000000   -8.88328060789   -9.05222215782   -2.00000000000
     -3.25401964873   11.84437414385    3.25401964873   -2.00000000000
      3.25401964873   11.84437414385    3.25401964873   -2.00000000000
      3.25401964873  -11.84437414385    3.25401964873   -2.00000000000
     -3.25401964873  -11.84437414385    3.25401964873   -2.00000000000
     -3.25401964873   11.84437414385   -3.25401964873   -2.00000000000
      3.25401964873   11.84437414385   -3.25401964873   -2.00000000000
      3.25401964873  -11.84437414385   -3.25401964873   -2.00000000000
     -3.25401964873  -11.84437414385   -3.25401964873   -2.00000000000
     -1.98192821856    4.44164030394   11.74398716476   -2.00000000000
      1.98192821856    4.44164030394   11.74398716476   -2.00000000000
      1.98192821856   -4.44164030394   11.74398716476   -2.00000000000
     -1.98192821856   -4.44164030394   11.74398716476   -2.00000000000
    -11.74398716476    4.44164030394    1.98192821856   -2.00000000000
     11.74398716476    4.44164030394    1.98192821856   -2.00000000000
     11.74398716476   -4.44164030394    1.98192821856   -2.00000000000
    -11.74398716476   -4.44164030394    1.98192821856   -2.00000000000
     -3.25401964873    0.00000000000  -12.30624180655   -2.00000000000
      3.25401964873    0.00000000000  -12.30624180655   -2.00000000000
     -6.50803929747    8.88328060789    6.50803929747   -2.00000000000
      6.50803929747    8.88328060789    6.50803929747   -2.00000000000
      6.50803929747   -8.88328060789    6.50803929747   -2.00000000000
     -6.50803929747   -8.88328060789    6.50803929747   -2.00000000000
     -6.50803929747    8.88328060789   -6.50803929747   -2.00000000000
      6.50803929747    8.88328060789   -6.50803929747   -2.00000000000
      6.50803929747   -8.88328060789   -6.50803929747   -2.00000000000
     -6.50803929747   -8.88328060789   -6.50803929747   -2.00000000000
     -9.76205894620    5.92218707193   -5.79820250908   -2.00000000000
      9.76205894620    5.92218707193   -5.79820250908   -2.00000000000
      9.76205894620   -5.92218707193   -5.79820250908   -2.00000000000
     -9.76205894620   -5.92218707193   -5.79820250908   -2.00000000000
     -6.50803929747    0.00000000000  -11.03415037637    4.00000000000
      6.50803929747    0.00000000000  -11.03415037637    4.00000000000
     -9.76205894620    2.96109353596   -7.78013072764    4.00000000000
      9.76205894620    2.96109353596   -7.78013072764    4.00000000000
      9.76205894620   -2.96109353596   -7.78013072764    4.00000000000
     -9.76205894620   -2.96109353596   -7.78013072764    4.00000000000
      0.00000000000   10.36382737587   -7.78013072764    4.00000000000
      0.00000000000  -10.36382737587   -7.78013072764    4.00000000000
    -11.03415037637    4.44164030394    5.23594786729   -2.00000000000
     11.03415037637    4.44164030394    5.23594786729   -2.00000000000
     11.03415037637   -4.44164030394    5.23594786729   -2.00000000000
    -11.03415037637   -4.44164030394    5.23594786729   -2.00000000000
     -5.23594786729    4.44164030394  -11.03415037637   -2.00000000000
      5.23594786729    4.44164030394  -11.03415037637   -2.00000000000
      5.23594786729   -4.44164030394  -11.03415037637   -2.00000000000
     -5.23594786729   -4.44164030394  -11.03415037637   -2.00000000000
      0.00000000000    0.00000000000   13.01607859493   -2.00000000000
    -13.01607859493    0.00000000000    0.00000000000   -2.00000000000
     13.01607859493    0.00000000000    0.00000000000   -2.00000000000
      0.00000000000    0.00000000000  -13.01607859493   -2.00000000000
     -9.76205894620    1.48054676798    8.48996751602    4.00000000000
      9.76205894620    1.48054676798    8.48996751602    4.00000000000
      9.76205894620   -1.48054676798    8.48996751602    4.00000000000
[...]
 Warning: drop high-lying PAOs                     5
 Number of occupied orbitals:   109
 Number of virtual  orbitals:  2307
 Number of Cholesky vectors:      7
 MP2 energy in ED [au]:          -0.087332110139
 Number of occupied LNOs:        65  (59.63%)
 Number of virtual  LNOs:       249  (10.79%)
 tol*100>norm                    85  8.672847514589762E-004
 tol*100>norm                   100  2.061822667643959E-003
 tol*100>norm                   101  1.873520225446106E-003
 tol*100>norm                   102  2.032171152875559E-003
 tol*100>norm                   212  8.631285111969514E-004
 tol*100>norm                   227  2.062588381893805E-003
 tol*100>norm                   228  1.872662825539767E-003
 tol*100>norm                   229  2.021876546309891E-003
 tol*100>norm                   339  1.062214353205124E-003
 tol*100>norm                   354  3.775762533012265E-003
 tol*100>norm                   355  2.225270544928310E-003
 tol*100>norm                   356  2.614163715100179E-003
 tol*100>norm                   465  9.011086297113818E-003
 tol*100>norm                   545  7.881199166311269E-003
 tol*100>norm                   625  7.881070459475101E-003
 tol*100>norm                   705  7.859053048827426E-003
 tol*100>norm                   785  7.851587607936687E-003
 tol*100>norm                   865  9.452111985988805E-003
 tol*100>norm                   945  9.451023604600820E-003
 tol*100>norm                  1025  9.450771002871259E-003
 tol*100>norm                  1105  9.450901801657745E-003
 tol*100>norm                  1185  7.832927672991343E-003
 tol*100>norm                  1265  7.832791453770065E-003
 tol*100>norm                  1345  8.061682823984326E-003
 tol*100>norm                  1425  8.061645921458124E-003
 tol*100>norm                  1506  8.631700551950417E-004
 tol*100>norm                  1521  2.008369003321315E-003
 tol*100>norm                  1522  1.842433360225403E-003
 tol*100>norm                  1523  2.078158725679341E-003
 tol*100>norm                  1633  8.629229964733720E-004
 tol*100>norm                  1648  2.008903497411705E-003
 tol*100>norm                  1649  1.841306263578948E-003
 tol*100>norm                  1650  2.077530601801358E-003
 tol*100>norm                  1759  7.570573855140761E-003
 tol*100>norm                  1839  7.570541649128903E-003
 tol*100>norm                  1999  7.807780510603504E-003
 tol*100>norm                  2079  7.807790223123279E-003
 tol*100>norm                  2159  7.551851211395859E-003
 tol*100>norm                  2239  7.551863028487659E-003
 tol*100>norm                  2319  7.551911777883141E-003
 tol*100>norm                  2399  7.551959245997728E-003
 avg/min projected vLNO norm    1.0000E+00    1.0000E+00
 Number of Cholesky vectors:      7
 MP2 energy in LIS [au]:         -0.086693000668
 Correction for frozen LNO [au]: -0.000639109471     (0.732%)
 Number of NAFs:                997  (10.74%)
 CPU time [min]: 44709.640                   Wall time [min]:   793.402
 

 Direct DF-CCSD(T) calculation
 
 Convergence criterion:  1.0E-05
 
 Number of occupied/virtual/auxiliary orbitals:    65   249   997
   5623.33 MB is the minimal memory requirement for (T)
   3961.10 MB is the minimal memory requirement for CCSD
 
 MP2 correlation energy [au]:        -2.275521372633
 
 LMP2 domain correlation energy contribution [au]:       -0.086692520284
 
 CPU time [min]: 44711.954                   Wall time [min]:   793.461
 
 
 Starting CCSD iterations...
 
                     Residual norm       Correlation Energy
 Iteration  1        0.460813949212       -2.196441628795
 Iteration  2        0.263684612337       -2.283778360499
 Iteration  3        0.075302396574       -2.298855737444
 Iteration  4        0.027307846694       -2.300547101697
 Iteration  5        0.011021557653       -2.299655254949
 Iteration  6        0.005426184833       -2.299395078884
 Iteration  7        0.002501595509       -2.299527677944
 Iteration  8        0.001113915535       -2.299549584316
 Iteration  9        0.000491819663       -2.299536841495
 Iteration 10        0.000223890627       -2.299541136850
 Iteration 11        0.000102290329       -2.299545813174
 Iteration 12        0.000056638651       -2.299545176989
 
 CCSD iteration has converged in 12 steps.
    18604.03 MB memory was utilized by CCSD
 
 T1 diagnostic:      2.107E-02            D1 diagnostic:      9.015E-02
 
 CCSD correlation energy [au]:          -0.083748910549
 
 CPU time [min]: 45073.912                   Wall time [min]:   799.950
 
 Calculation of (T) correction...
 
 Laplace threshold, nquadmin:  1.00E-03   4
 Number of quadrature points:    4
 
    14447.84 MB memory is utilized for (T)

 0%       25%       50%       75%       100%
 |---------|---------|---------|---------| 
 
 (T) correction [au]:                   -0.005120320681
 CCSD(T) correlation energy [au]:       -0.088869231230
 
 CPU time [min]: 45769.151                   Wall time [min]:   809.968
 
 MO:   111
 Number of atoms in domain:      28
 Number of atomic orbitals:    2475
 Number of atoms for local DF:   28
 Number of fitting functions:  9281 (100.00%)
 Warning: drop high-lying PAOs                     5
 Number of occupied orbitals:    87
 Number of virtual  orbitals:  2307
 Number of Cholesky vectors:      7
 MP2 energy in ED [au]:          -0.083073453348
 Number of occupied LNOs:        45  (51.72%)
 Number of virtual  LNOs:       201   (8.71%)
 tol*100>norm                    85  9.561976514362097E-004
 tol*100>norm                   100  3.279877531246270E-003
 tol*100>norm                   101  1.943533620113422E-003
 tol*100>norm                   102  2.777094464006365E-003
 tol*100>norm                   212  8.642047394625324E-004
 tol*100>norm                   227  2.063566099284210E-003
 tol*100>norm                   228  1.873962008340033E-003
 tol*100>norm                   229  2.023671510907299E-003
 tol*100>norm                   339  8.642095868216593E-004
 tol*100>norm                   354  2.003235230046339E-003
 tol*100>norm                   355  1.851778244279050E-003
 tol*100>norm                   356  2.059968449642401E-003
 tol*100>norm                   465  9.028883943543130E-003
 tol*100>norm                   545  7.846236494088013E-003
 tol*100>norm                   625  7.846285788644637E-003
 tol*100>norm                   705  7.853841645371375E-003
 tol*100>norm                   785  7.846288994270485E-003
 tol*100>norm                   865  9.531490885516235E-003
 tol*100>norm                  1105  9.469140191244049E-003
 tol*100>norm                  1185  7.850904273470110E-003
 tol*100>norm                  1265  7.833592552321283E-003
 tol*100>norm                  1345  8.091854277319538E-003
 tol*100>norm                  1425  8.538555219085420E-003
 tol*100>norm                  1506  1.284862257287353E-003
 tol*100>norm                  1521  5.753731915577022E-003
 tol*100>norm                  1522  2.223218969972926E-003
 tol*100>norm                  1523  3.845936103797406E-003
 tol*100>norm                  1839  7.570537188126503E-003
 tol*100>norm                  1919  7.826859203250248E-003
 tol*100>norm                  2399  7.572952909053503E-003
 avg/min projected vLNO norm    1.0000E+00    1.0000E+00
 Number of Cholesky vectors:      6
 MP2 energy in LIS [au]:         -0.082574810360
 Correction for frozen LNO [au]: -0.000498642988     (0.600%)
 Number of NAFs:                753   (8.11%)
 CPU time [min]: 46753.895                   Wall time [min]:   828.770
 

 Direct DF-CCSD(T) calculation
 
 Convergence criterion:  1.0E-05
 
 Number of occupied/virtual/auxiliary orbitals:    45   201   753
   2409.89 MB is the minimal memory requirement for (T)
   1631.20 MB is the minimal memory requirement for CCSD
 
 MP2 correlation energy [au]:        -1.600669219197
 
 LMP2 domain correlation energy contribution [au]:       -0.082574199070
 
 CPU time [min]: 46754.744                   Wall time [min]:   828.795
 
 
 Starting CCSD iterations...
 
                     Residual norm       Correlation Energy
 Iteration  1        0.370203732654       -1.563630925104
 Iteration  2        0.199635605619       -1.614233077633
 Iteration  3        0.058766196351       -1.624374998182
 Iteration  4        0.019650658127       -1.625445345361
 Iteration  5        0.007614594333       -1.624862600808
 Iteration  6        0.003520998487       -1.624777563374
 Iteration  7        0.001558560174       -1.624823998972
 Iteration  8        0.000717239583       -1.624822448363
 Iteration  9        0.000318767631       -1.624815592626
 Iteration 10        0.000133137114       -1.624820528299
 Iteration 11        0.000060477318       -1.624822679730
 
 CCSD iteration has converged in 11 steps.
     7813.42 MB memory was utilized by CCSD
 
 T1 diagnostic:      1.841E-02            D1 diagnostic:      7.972E-02
 
 CCSD correlation energy [au]:          -0.080712125935
 
 CPU time [min]: 46844.159                   Wall time [min]:   830.188
 
 Calculation of (T) correction...
 
 Laplace threshold, nquadmin:  1.00E-03   4
 Number of quadrature points:    4
 
     5410.64 MB memory is utilized for (T)

 0%       25%       50%       75%       100%
 |---------|---------|---------|---------| 
 
 (T) correction [au]:                   -0.004141262045
 CCSD(T) correlation energy [au]:       -0.084853387980
 
 CPU time [min]: 47068.201                   Wall time [min]:   833.436
 
 MO:   112
 Number of atoms in domain:      28
 Number of atomic orbitals:    2475
 Number of atoms for local DF:   24
 Number of fitting functions:  8133  (87.63%)
 Warning: drop high-lying PAOs                     5
 Number of occupied orbitals:    88
 Number of virtual  orbitals:  2065
 Number of Cholesky vectors:      7
 MP2 energy in ED [au]:          -0.087164389033
 Number of occupied LNOs:        59  (67.05%)
 Number of virtual  LNOs:       251  (12.15%)
 tol*100>norm                    85  8.683743211661446E-004
 tol*100>norm                   100  2.062118651048349E-003
 tol*100>norm                   101  1.874897097843180E-003
 tol*100>norm                   102  2.034454187612268E-003
 tol*100>norm                   212  8.640647919639208E-004
 tol*100>norm                   227  2.063363609727959E-003
 tol*100>norm                   228  1.873975952606527E-003
 tol*100>norm                   229  2.023576445254990E-003
 tol*100>norm                   339  1.134506018345758E-003
 tol*100>norm                   354  3.776607823365346E-003
 tol*100>norm                   355  2.246996048033124E-003
 tol*100>norm                   356  3.594821951456176E-003
 tol*100>norm                   465  9.015266846570355E-003
 tol*100>norm                   545  7.882117007107642E-003
 tol*100>norm                   705  7.914606716247524E-003
 tol*100>norm                   785  7.851819843967173E-003
 tol*100>norm                   865  9.453125867956326E-003
 tol*100>norm                  1105  9.451895358322721E-003
 tol*100>norm                  1185  7.833501072157826E-003
 tol*100>norm                  1265  7.833199321343815E-003
 tol*100>norm                  1345  8.061853445964356E-003
 tol*100>norm                  1426  8.631937959760446E-004
 tol*100>norm                  1441  2.008380779682937E-003
 tol*100>norm                  1442  1.842455743911746E-003
 tol*100>norm                  1443  2.078211113661566E-003
 tol*100>norm                  1679  7.570806193900992E-003
 tol*100>norm                  1759  7.570771053091646E-003
 tol*100>norm                  1919  7.807962247609448E-003
 tol*100>norm                  1999  7.552304468455591E-003
 tol*100>norm                  2079  7.552405526113906E-003
 avg/min projected vLNO norm    9.9990E-01    9.9952E-01
 Number of Cholesky vectors:      7
 MP2 energy in LIS [au]:         -0.086571176434
 Correction for frozen LNO [au]: -0.000593212599     (0.681%)
 Number of NAFs:                983  (12.09%)
 CPU time [min]: 47962.517                   Wall time [min]:   850.738
 

 Direct DF-CCSD(T) calculation
 
 Convergence criterion:  1.0E-05
 
 Number of occupied/virtual/auxiliary orbitals:    59   251   983
   5151.12 MB is the minimal memory requirement for (T)
   3528.90 MB is the minimal memory requirement for CCSD
 
 MP2 correlation energy [au]:        -2.451246683103
 
 LMP2 domain correlation energy contribution [au]:       -0.086570929944
 
 CPU time [min]: 47964.614                   Wall time [min]:   850.789
 
 
 Starting CCSD iterations...
 
                     Residual norm       Correlation Energy
 Iteration  1        0.467479430614       -2.370714137908
 Iteration  2        0.262158163914       -2.457354077256
 Iteration  3        0.074804203455       -2.472477194791
 Iteration  4        0.026612424013       -2.474430802474
 Iteration  5        0.010422359074       -2.473593341686
 Iteration  6        0.005055344134       -2.473251879211
 Iteration  7        0.002303992925       -2.473323634221
 Iteration  8        0.001051533065       -2.473347476941
 Iteration  9        0.000471762109       -2.473344509884
 Iteration 10        0.000223349821       -2.473349689295
 Iteration 11        0.000105157251       -2.473352868973
 Iteration 12        0.000060766813       -2.473352107756
 
 CCSD iteration has converged in 12 steps.
    18641.72 MB memory was utilized by CCSD
 
 T1 diagnostic:      2.141E-02            D1 diagnostic:      8.214E-02
 
 CCSD correlation energy [au]:          -0.083644825708
 
 CPU time [min]: 48269.129                   Wall time [min]:   855.714
 
 Calculation of (T) correction...
 
 Laplace threshold, nquadmin:  1.00E-03   4
 Number of quadrature points:    4
 
    13115.29 MB memory is utilized for (T)

 0%       25%       50%       75%       100%
 |---------|---------|---------|---------| 
 
 (T) correction [au]:                   -0.005014309607
 CCSD(T) correlation energy [au]:       -0.088659135315
 
 CPU time [min]: 48841.538                   Wall time [min]:   864.003
 
 **********************************************************************
 Dimensions of the extended domains:    Minimum / Average / Maximum
 
 Number of atoms in domain:                  28      28.0        28
 Number of atomic orbitals:                2475    2475.0      2475
 Number of fitting functions:              8133    9086.2      9281
 Number of occupied localized MOs:           44      78.8       112
 Number of PAOs:                           2065    2266.2      2307
 Number of occupied LNOs:                    27      42.5        86
 Number of virtual  LNOs:                   145     186.3       321
 Number of NAFs:                            520     714.3      1332
 
 **********************************************************************
 Distant (and weak) pair contributions, corrections
 
 Sum of pair energies [au]:                    -0.002229921694    (0.025%)
 Sum of energy corrections [au]:               -0.052689832495    (0.598%)
 Pair energies + LNO corrections [au]:         -0.054919754188
 Sum of LMP2 contributions [au]:               -8.817762635901
 
 **********************************************************************
  Time of manipulations in the EDs:      max CPU/Wall [s]  all CPU/Wall [min]
 
 PD construction & multipole pair E  118759.64  1592.61  1979.33    26.54
 Construct MO basis of the ED           162.29     2.23   279.30     3.70
 (mu,nu|P) evaluation & trf 2 (ai|P)  23144.22   424.09 31123.76   545.28
 Evaluate MP2 energy of the ED         2199.02    29.08  2777.37    36.76
 Transformations to the LNO basis      1145.46    15.76  1225.27    16.67
 Build W_PQ (Jai or Jpi part)            74.61     4.38    67.35     1.58
 Evaluate MP2 energy of the LIS          70.28     0.93    29.13     0.39
 (mu,nu|P) evaluation & trf 2 J(abQ)  61403.61  1252.39 63972.16  1281.49
 Total of the above for all EDs       88199.49  1728.86 99474.33  1885.87
 
 **********************************************************************
 Maximum memory requirement [MB]:       
 
 PD construction & multipole pair E        540.1
 AO integral evaluation in the EDs       26508.6
 (mu,nu|P) evaluation & trf 2 (aI|P)     90502.9
 Evaluate MP2 energy in the EDs          41594.6
 Transformation to the LNO basis         10166.8
 (mu,nu|P) to Jab transformation         33430.3
 Evaluate MP2 energy in the LIS          10866.8
 Minimum requirement for LIS CCSD         9987.4
 Actually allocated  for LIS CCSD        50703.3
 Minimum requirement for LIS (T)         13932.9
 Actually allocated  for LIS (T)         39627.1
 
 ======================================================================
 ======================================================================
 
 
 
 ======================================================================
 ======================================================================
 
 Final local CC results:
 
 Minimum number of correlated electrons:        54       ( 24.1%)
 Maximum number of correlated electrons:       172       ( 76.8%)
 Average number of correlated electrons:        84.9     ( 37.9%)
 Minimum number of correlated orbitals:        173       (  7.1%)
 Maximum number of correlated orbitals:        407       ( 16.8%)
 Average number of correlated orbitals:        228.8     (  9.4%)
 
 CPU time for integral calculations [min]:                377.365
 Wall time for integral calculations [min]:               218.924
 
 CPU time for SCF calculation [min]:                    10495.725
 Wall time for SCF calculation [min]:                     139.746
 
 CPU time for orbital localization [min]:                   1.198
 Wall time for orbital localization [min]:                  0.234
 
 CPU time for integral transformations [min]:            4620.027
 Wall time for integral transformations [min]:            199.068
 
 Reference energy [au]:                                -23027.871774890453
 
 LMP2 correlation energy [au]:                             -8.817762635901
 Total LMP2 energy [au]:                               -23036.689537526352
 
 Total MP2 correction for dropped NAFs [au]:               -0.000118859151
 Total MP2 correction [au]:                                -0.055038613339
 
 CPU time for CCSD calculations [min]:                  14030.672
 Total CPU time for CCSD [min]:                         29524.987
 Wall time for CCSD calculations [min]:                   230.862
 Total wall time for CCSD [min]:                          788.834
 
 CCSD correlation energy [au]:                             -8.686749282095
 Total CCSD energy [au]:                               -23036.558524172549
 CCSD correlation energy + 0.5 MP2 corrections [au]:       -8.714268588765
 Total LNO-CCSD energy with MP2 corrections [au]:      -23036.586043479219
 
 CPU time for (T) corrections [min]:                    30190.860
 Total CPU time for CCSD(T) [min]:                      59715.848
 Wall time for (T) corrections [min]:                     434.074
 Total wall time for CCSD(T) [min]:                      1222.908
 
 Total (T) correlation energy contribution [au]:           -0.404814721390
 Total (T) correlation energy+0.5 MP2 correction [au]:     -0.432334028060
 CCSD(T) correlation energy [au]:                          -9.091564003485
 Total CCSD(T) energy [au]:                            -23036.963338893936
 CCSD(T) correlation energy + MP2 corrections [au]:        -9.146602616825
 Total LNO-CCSD(T) energy with MP2 corrections [au]:   -23037.018377507276
 
 ======================================================================
 ======================================================================
 
 ************************ 2021-12-07 13:14:55 *************************
                      Normal termination of mrcc.
 **********************************************************************
