
                                 *****************
                                 * O   R   C   A *
                                 *****************

                                            #,                                       
                                            ###                                      
                                            ####                                     
                                            #####                                    
                                            ######                                   
                                           ########,                                 
                                     ,,################,,,,,                         
                               ,,#################################,,                 
                          ,,##########################################,,             
                       ,#########################################, ''#####,          
                    ,#############################################,,   '####,        
                  ,##################################################,,,,####,       
                ,###########''''           ''''###############################       
              ,#####''   ,,,,##########,,,,          '''####'''          '####       
            ,##' ,,,,###########################,,,                        '##       
           ' ,,###''''                  '''############,,,                           
         ,,##''                                '''############,,,,        ,,,,,,###''
      ,#''                                            '''#######################'''  
     '                                                          ''''####''''         
             ,#######,   #######,   ,#######,      ##                                
            ,#'     '#,  ##    ##  ,#'     '#,    #''#        ######   ,####,        
            ##       ##  ##   ,#'  ##            #'  '#       #        #'  '#        
            ##       ##  #######   ##           ,######,      #####,   #    #        
            '#,     ,#'  ##    ##  '#,     ,#' ,#      #,         ##   #,  ,#        
             '#######'   ##     ##  '#######'  #'      '#     #####' # '####'        



                  #######################################################
                  #                        -***-                        #
                  #          Department of theory and spectroscopy      #
                  #    Directorship and core code : Frank Neese         #
                  #        Max Planck Institute fuer Kohlenforschung    #
                  #                Kaiser Wilhelm Platz 1               #
                  #                 D-45470 Muelheim/Ruhr               #
                  #                      Germany                        #
                  #                                                     #
                  #                  All rights reserved                #
                  #                        -***-                        #
                  #######################################################


                         Program Version 5.0.1 -  RELEASE  -


 With contributions from (in alphabetic order):
   Daniel Aravena         : Magnetic Suceptibility
   Michael Atanasov       : Ab Initio Ligand Field Theory (pilot matlab implementation)
   Alexander A. Auer      : GIAO ZORA, VPT2 properties, NMR spectrum
   Ute Becker             : Parallelization
   Giovanni Bistoni       : ED, misc. LED, open-shell LED, HFLD
   Martin Brehm           : Molecular dynamics
   Dmytro Bykov           : SCF Hessian
   Vijay G. Chilkuri      : MRCI spin determinant printing, contributions to CSF-ICE
   Dipayan Datta          : RHF DLPNO-CCSD density
   Achintya Kumar Dutta   : EOM-CC, STEOM-CC
   Dmitry Ganyushin       : Spin-Orbit,Spin-Spin,Magnetic field MRCI
   Miquel Garcia          : C-PCM and meta-GGA Hessian, CC/C-PCM, Gaussian charge scheme
   Yang Guo               : DLPNO-NEVPT2, F12-NEVPT2, CIM, IAO-localization
   Andreas Hansen         : Spin unrestricted coupled pair/coupled cluster methods
   Benjamin Helmich-Paris : MC-RPA, TRAH-SCF, COSX integrals
   Lee Huntington         : MR-EOM, pCC
   Robert Izsak           : Overlap fitted RIJCOSX, COSX-SCS-MP3, EOM
   Marcus Kettner         : VPT2
   Christian Kollmar      : KDIIS, OOCD, Brueckner-CCSD(T), CCSD density, CASPT2, CASPT2-K
   Simone Kossmann        : Meta GGA functionals, TD-DFT gradient, OOMP2, MP2 Hessian
   Martin Krupicka        : Initial AUTO-CI
   Lucas Lang             : DCDCAS
   Marvin Lechner         : AUTO-CI (C++ implementation), FIC-MRCC
   Dagmar Lenk            : GEPOL surface, SMD
   Dimitrios Liakos       : Extrapolation schemes; Compound Job, initial MDCI parallelization
   Dimitrios Manganas     : Further ROCIS development; embedding schemes
   Dimitrios Pantazis     : SARC Basis sets
   Anastasios Papadopoulos: AUTO-CI, single reference methods and gradients
   Taras Petrenko         : DFT Hessian,TD-DFT gradient, ASA, ECA, R-Raman, ABS, FL, XAS/XES, NRVS
   Peter Pinski           : DLPNO-MP2, DLPNO-MP2 Gradient
   Christoph Reimann      : Effective Core Potentials
   Marius Retegan         : Local ZFS, SOC
   Christoph Riplinger    : Optimizer, TS searches, QM/MM, DLPNO-CCSD(T), (RO)-DLPNO pert. Triples
   Tobias Risthaus        : Range-separated hybrids, TD-DFT gradient, RPA, STAB
   Michael Roemelt        : Original ROCIS implementation
   Masaaki Saitow         : Open-shell DLPNO-CCSD energy and density
   Barbara Sandhoefer     : DKH picture change effects
   Avijit Sen             : IP-ROCIS
   Kantharuban Sivalingam : CASSCF convergence, NEVPT2, FIC-MRCI
   Bernardo de Souza      : ESD, SOC TD-DFT
   Georgi Stoychev        : AutoAux, RI-MP2 NMR, DLPNO-MP2 response
   Willem Van den Heuvel  : Paramagnetic NMR
   Boris Wezisla          : Elementary symmetry handling
   Frank Wennmohs         : Technical directorship


 We gratefully acknowledge several colleagues who have allowed us to
 interface, adapt or use parts of their codes:
   Stefan Grimme, W. Hujo, H. Kruse, P. Pracht,  : VdW corrections, initial TS optimization,
                  C. Bannwarth, S. Ehlert          DFT functionals, gCP, sTDA/sTD-DF
   Ed Valeev, F. Pavosevic, A. Kumar             : LibInt (2-el integral package), F12 methods
   Garnet Chan, S. Sharma, J. Yang, R. Olivares  : DMRG
   Ulf Ekstrom                                   : XCFun DFT Library
   Mihaly Kallay                                 : mrcc  (arbitrary order and MRCC methods)
   Jiri Pittner, Ondrej Demel                    : Mk-CCSD
   Frank Weinhold                                : gennbo (NPA and NBO analysis)
   Christopher J. Cramer and Donald G. Truhlar   : smd solvation model
   Lars Goerigk                                  : TD-DFT with DH, B97 family of functionals
   V. Asgeirsson, H. Jonsson                     : NEB implementation
   FAccTs GmbH                                   : IRC, NEB, NEB-TS, DLPNO-Multilevel, CI-OPT
                                                   MM, QMMM, 2- and 3-layer-ONIOM, Crystal-QMMM,
                                                   LR-CPCM, SF, NACMEs, symmetry and pop. for TD-DFT,
                                                   nearIR, NL-DFT gradient (VV10), updates on ESD,
                                                   ML-optimized integration grids
   S Lehtola, MJT Oliveira, MAL Marques          : LibXC Library
   Liviu Ungur et al                             : ANISO software


 Your calculation uses the libint2 library for the computation of 2-el integrals
 For citations please refer to: http://libint.valeyev.net

 Your ORCA version has been built with support for libXC version: 5.1.0
 For citations please refer to: https://tddft.org/programs/libxc/

 This ORCA versions uses:
   CBLAS   interface :  Fast vector & matrix operations
   LAPACKE interface :  Fast linear algebra routines
   SCALAPACK package :  Parallel linear algebra routines
   Shared memory     :  Shared parallel matrices
   BLAS/LAPACK       :  OpenBLAS 0.3.15  USE64BITINT DYNAMIC_ARCH NO_AFFINITY SkylakeX SINGLE_THREADED
        Core in use  :  SkylakeX
   Copyright (c) 2011-2014, The OpenBLAS Project


Setting NCore(Ti) from 10 to 18
Setting NCore(O ) from 2 to 2
SCAN-COORDS
================================================================================

----- Orbital basis set information -----
Your calculation utilizes the basis: def2-QZVPP
   F. Weigend and R. Ahlrichs, Phys. Chem. Chem. Phys. 7, 3297 (2005).

----- AuxJ basis set information -----
Your calculation utilizes the auxiliary basis: def2/J
   F. Weigend, Phys. Chem. Chem. Phys. 8, 1057 (2006).

----- AuxC basis set information -----
Your calculation utilizes the auxiliary basis: def2-QZVPP/C
  H-La, Hf-Rn : A. Hellweg, C. Hattig, S. Hofener and W. Klopper, Theor. Chem. Acc. 117, 587 (2007).
        Ce-Lu : J. Chmela and M. E. Harding, Mol. Phys. (2018).

================================================================================
                                        WARNINGS
                       Please study these warnings very carefully!
================================================================================

WARNING: The globally-selected AuxJ basis set is optimized for use with ECPs
         Make sure a suitable alternative is explicitly given all heavy elements (Z>36)

WARNING: Post HF methods need fully converged wavefunctions
  ===> : Setting SCFConvForced true
         You can overwrite this default with %scf ConvForced false 


WARNING: MDCI localization with Augmented Hessian Foster-Boys
  ===> : Switching off randomization!

INFO   : the flag for use of the SHARK integral package has been found!

================================================================================
                                       INPUT FILE
================================================================================
NAME = orca.inp
|  1> ! VeryTightSCF DLPNO-CCSD(T) NormalPNO RIJCOSX SlowConv DIIS
|  2> %maxcore 72000
|  3> %pal
|  4> nprocs 16
|  5> end
|  6> %pointcharges "orca.bq"
|  7> %method
|  8> Method hf
|  9> RI on
| 10> RunTyp Energy
| 11> NewNCore Ti 18 end
| 12> NewNCore O 2 end
| 13> end
| 14> %basis
| 15> Basis "def2-QZVPP"
| 16> Aux "def2/J"
| 17> AuxC "def2-QZVPP/C"
| 18> end
| 19> %scf
| 20> HFTyp rhf
| 21> Guess Hueckel
| 22> AutoStart True
| 23> SCFMode Direct
| 24> MaxIter 1000
| 25> sthresh 1e-6
| 26> AutoTRAHIter 100
| 27> end
| 28> %mdci
| 29>     StorageType Shared
| 30> end
| 31> %coords
| 32> CTyp xyz
| 33> Mult 1
| 34> Units angs
| 35>   Charge -12
| 36>   coords
| 37> O:                      0.00000000000    0.00000000000    0.00000000000
| 38> Ti                      0.00000536997    1.48055149700   -1.06892606631
| 39> Ti                      0.00000552101   -1.48055312386   -1.06892138720
| 40> O                       0.00000442396   -0.00000111986   -2.54840301833
| 41> O                      -2.03525914147    1.48054518365   -1.11149385695
| 42> O                       2.03526534753    1.48054527935   -1.11149163807
| 43> O                       2.03526471018   -1.48054700097   -1.11149295951
| 44> O                      -2.03525907462   -1.48054722666   -1.11149503385
| 45> O                      -0.00000037752    2.96109155033   -0.00000271770
| 46> O                      -0.00000037752   -2.96109552160   -0.00000271770
| 47> O                       0.00000449994    2.96109199200   -2.54840438198
| 48> O                       0.00000449994   -2.96109507993   -2.54840438198
| 49> Ti>    4.00000000000    3.25402319191   -0.00000112036   -1.42716202606
| 50> NewECP
| 51> N_core 0
| 52>   lmax f
| 53>   s 2
| 54>    1      0.860000       9.191690  2
| 55>    2      0.172000       0.008301  2
| 56>   p 2
| 57>    1      0.860000      17.997720  2
| 58>    2      0.172000      -0.032600  2
| 59>   d 2
| 60>    1      1.600000      -9.504310  2
| 61>    2      0.320000      -0.151370  2
| 62>   f 1
| 63>    1      1.000000000    0.000000000 2
| 64> end
| 65> Ti>    4.00000000000   -3.25401610555   -0.00000112036   -1.42716202606
| 66> NewECP
| 67> N_core 0
| 68>   lmax f
| 69>   s 2
| 70>    1      0.860000       9.191690  2
| 71>    2      0.172000       0.008301  2
| 72>   p 2
| 73>    1      0.860000      17.997720  2
| 74>    2      0.172000      -0.032600  2
| 75>   d 2
| 76>    1      1.600000      -9.504310  2
| 77>    2      0.320000      -0.151370  2
| 78>   f 1
| 79>    1      1.000000000    0.000000000 2
| 80> end
| 81> Ti>    4.00000000000   -0.00005220374   -0.00000071014   -4.41288396045
| 82> NewECP
| 83> N_core 0
| 84>   lmax f
| 85>   s 2
| 86>    1      0.860000       9.191690  2
| 87>    2      0.172000       0.008301  2
| 88>   p 2
| 89>    1      0.860000      17.997720  2
| 90>    2      0.172000      -0.032600  2
| 91>   d 2
| 92>    1      1.600000      -9.504310  2
| 93>    2      0.320000      -0.151370  2
| 94>   f 1
| 95>    1      1.000000000    0.000000000 2
| 96> end
| 97> Ti>    4.00000000000    0.00000552101    4.44163394806   -1.06892138720
| 98> NewECP
| 99> N_core 0
|100>   lmax f
|101>   s 2
|102>    1      0.860000       9.191690  2
|103>    2      0.172000       0.008301  2
|104>   p 2
|105>    1      0.860000      17.997720  2
|106>    2      0.172000      -0.032600  2
|107>   d 2
|108>    1      1.600000      -9.504310  2
|109>    2      0.320000      -0.151370  2
|110>   f 1
|111>    1      1.000000000    0.000000000 2
|112> end
|113> Ti>    4.00000000000    0.00000536997   -4.44163557493   -1.06892606631
|114> NewECP
|115> N_core 0
|116>   lmax f
|117>   s 2
|118>    1      0.860000       9.191690  2
|119>    2      0.172000       0.008301  2
|120>   p 2
|121>    1      0.860000      17.997720  2
|122>    2      0.172000      -0.032600  2
|123>   d 2
|124>    1      1.600000      -9.504310  2
|125>    2      0.320000      -0.151370  2
|126>   f 1
|127>    1      1.000000000    0.000000000 2
|128> end
|129> Ti>    4.00000000000   -3.25401668289    2.96109302555   -1.42716235830
|130> NewECP
|131> N_core 0
|132>   lmax f
|133>   s 2
|134>    1      0.860000       9.191690  2
|135>    2      0.172000       0.008301  2
|136>   p 2
|137>    1      0.860000      17.997720  2
|138>    2      0.172000      -0.032600  2
|139>   d 2
|140>    1      1.600000      -9.504310  2
|141>    2      0.320000      -0.151370  2
|142>   f 1
|143>    1      1.000000000    0.000000000 2
|144> end
|145> Ti>    4.00000000000    3.25402261457    2.96109302555   -1.42716235830
|146> NewECP
|147> N_core 0
|148>   lmax f
|149>   s 2
|150>    1      0.860000       9.191690  2
|151>    2      0.172000       0.008301  2
|152>   p 2
|153>    1      0.860000      17.997720  2
|154>    2      0.172000      -0.032600  2
|155>   d 2
|156>    1      1.600000      -9.504310  2
|157>    2      0.320000      -0.151370  2
|158>   f 1
|159>    1      1.000000000    0.000000000 2
|160> end
|161> Ti>    4.00000000000    3.25402261457   -2.96109404638   -1.42716235830
|162> NewECP
|163> N_core 0
|164>   lmax f
|165>   s 2
|166>    1      0.860000       9.191690  2
|167>    2      0.172000       0.008301  2
|168>   p 2
|169>    1      0.860000      17.997720  2
|170>    2      0.172000      -0.032600  2
|171>   d 2
|172>    1      1.600000      -9.504310  2
|173>    2      0.320000      -0.151370  2
|174>   f 1
|175>    1      1.000000000    0.000000000 2
|176> end
|177> Ti>    4.00000000000   -3.25401668289   -2.96109404638   -1.42716235830
|178> NewECP
|179> N_core 0
|180>   lmax f
|181>   s 2
|182>    1      0.860000       9.191690  2
|183>    2      0.172000       0.008301  2
|184>   p 2
|185>    1      0.860000      17.997720  2
|186>    2      0.172000      -0.032600  2
|187>   d 2
|188>    1      1.600000      -9.504310  2
|189>    2      0.320000      -0.151370  2
|190>   f 1
|191>    1      1.000000000    0.000000000 2
|192> end
|193> Ti>    4.00000000000   -0.00005206359    2.96109301637   -4.41288206312
|194> NewECP
|195> N_core 0
|196>   lmax f
|197>   s 2
|198>    1      0.860000       9.191690  2
|199>    2      0.172000       0.008301  2
|200>   p 2
|201>    1      0.860000      17.997720  2
|202>    2      0.172000      -0.032600  2
|203>   d 2
|204>    1      1.600000      -9.504310  2
|205>    2      0.320000      -0.151370  2
|206>   f 1
|207>    1      1.000000000    0.000000000 2
|208> end
|209> Ti>    4.00000000000   -0.00005206359   -2.96109405556   -4.41288206312
|210> NewECP
|211> N_core 0
|212>   lmax f
|213>   s 2
|214>    1      0.860000       9.191690  2
|215>    2      0.172000       0.008301  2
|216>   p 2
|217>    1      0.860000      17.997720  2
|218>    2      0.172000      -0.032600  2
|219>   d 2
|220>    1      1.600000      -9.504310  2
|221>    2      0.320000      -0.151370  2
|222>   f 1
|223>    1      1.000000000    0.000000000 2
|224> end
|225> Ti>    4.00000000000    3.25395215162    1.48054533538   -4.59991327640
|226> NewECP
|227> N_core 0
|228>   lmax f
|229>   s 2
|230>    1      0.860000       9.191690  2
|231>    2      0.172000       0.008301  2
|232>   p 2
|233>    1      0.860000      17.997720  2
|234>    2      0.172000      -0.032600  2
|235>   d 2
|236>    1      1.600000      -9.504310  2
|237>    2      0.320000      -0.151370  2
|238>   f 1
|239>    1      1.000000000    0.000000000 2
|240> end
|241> Ti>    4.00000000000    3.25395195581   -1.48054722422   -4.59991284715
|242> NewECP
|243> N_core 0
|244>   lmax f
|245>   s 2
|246>    1      0.860000       9.191690  2
|247>    2      0.172000       0.008301  2
|248>   p 2
|249>    1      0.860000      17.997720  2
|250>    2      0.172000      -0.032600  2
|251>   d 2
|252>    1      1.600000      -9.504310  2
|253>    2      0.320000      -0.151370  2
|254>   f 1
|255>    1      1.000000000    0.000000000 2
|256> end
|257> Ti>    4.00000000000   -3.25408714585    1.48054533538   -4.59991327640
|258> NewECP
|259> N_core 0
|260>   lmax f
|261>   s 2
|262>    1      0.860000       9.191690  2
|263>    2      0.172000       0.008301  2
|264>   p 2
|265>    1      0.860000      17.997720  2
|266>    2      0.172000      -0.032600  2
|267>   d 2
|268>    1      1.600000      -9.504310  2
|269>    2      0.320000      -0.151370  2
|270>   f 1
|271>    1      1.000000000    0.000000000 2
|272> end
|273> Ti>    4.00000000000   -3.25408734165   -1.48054722422   -4.59991284715
|274> NewECP
|275> N_core 0
|276>   lmax f
|277>   s 2
|278>    1      0.860000       9.191690  2
|279>    2      0.172000       0.008301  2
|280>   p 2
|281>    1      0.860000      17.997720  2
|282>    2      0.172000      -0.032600  2
|283>   d 2
|284>    1      1.600000      -9.504310  2
|285>    2      0.320000      -0.151370  2
|286>   f 1
|287>    1      1.000000000    0.000000000 2
|288> end
|289> Ti>    4.00000000000   -6.50803392749    1.48055149700   -1.06892606631
|290> NewECP
|291> N_core 0
|292>   lmax f
|293>   s 2
|294>    1      0.860000       9.191690  2
|295>    2      0.172000       0.008301  2
|296>   p 2
|297>    1      0.860000      17.997720  2
|298>    2      0.172000      -0.032600  2
|299>   d 2
|300>    1      1.600000      -9.504310  2
|301>    2      0.320000      -0.151370  2
|302>   f 1
|303>    1      1.000000000    0.000000000 2
|304> end
|305> Ti>    4.00000000000    6.50804466744    1.48055149700   -1.06892606631
|306> NewECP
|307> N_core 0
|308>   lmax f
|309>   s 2
|310>    1      0.860000       9.191690  2
|311>    2      0.172000       0.008301  2
|312>   p 2
|313>    1      0.860000      17.997720  2
|314>    2      0.172000      -0.032600  2
|315>   d 2
|316>    1      1.600000      -9.504310  2
|317>    2      0.320000      -0.151370  2
|318>   f 1
|319>    1      1.000000000    0.000000000 2
|320> end
|321> Ti>    4.00000000000    6.50804481848   -1.48055312386   -1.06892138720
|322> NewECP
|323> N_core 0
|324>   lmax f
|325>   s 2
|326>    1      0.860000       9.191690  2
|327>    2      0.172000       0.008301  2
|328>   p 2
|329>    1      0.860000      17.997720  2
|330>    2      0.172000      -0.032600  2
|331>   d 2
|332>    1      1.600000      -9.504310  2
|333>    2      0.320000      -0.151370  2
|334>   f 1
|335>    1      1.000000000    0.000000000 2
|336> end
|337> Ti>    4.00000000000   -6.50803377645   -1.48055312386   -1.06892138720
|338> NewECP
|339> N_core 0
|340>   lmax f
|341>   s 2
|342>    1      0.860000       9.191690  2
|343>    2      0.172000       0.008301  2
|344>   p 2
|345>    1      0.860000      17.997720  2
|346>    2      0.172000      -0.032600  2
|347>   d 2
|348>    1      1.600000      -9.504310  2
|349>    2      0.320000      -0.151370  2
|350>   f 1
|351>    1      1.000000000    0.000000000 2
|352> end
|353> Ti>    4.00000000000   -3.25401610555    5.92218595157   -1.42716202606
|354> NewECP
|355> N_core 0
|356>   lmax f
|357>   s 2
|358>    1      0.860000       9.191690  2
|359>    2      0.172000       0.008301  2
|360>   p 2
|361>    1      0.860000      17.997720  2
|362>    2      0.172000      -0.032600  2
|363>   d 2
|364>    1      1.600000      -9.504310  2
|365>    2      0.320000      -0.151370  2
|366>   f 1
|367>    1      1.000000000    0.000000000 2
|368> end
|369> Ti>    4.00000000000    3.25402319191    5.92218595157   -1.42716202606
|370> NewECP
|371> N_core 0
|372>   lmax f
|373>   s 2
|374>    1      0.860000       9.191690  2
|375>    2      0.172000       0.008301  2
|376>   p 2
|377>    1      0.860000      17.997720  2
|378>    2      0.172000      -0.032600  2
|379>   d 2
|380>    1      1.600000      -9.504310  2
|381>    2      0.320000      -0.151370  2
|382>   f 1
|383>    1      1.000000000    0.000000000 2
|384> end
|385> Ti>    4.00000000000    3.25402319191   -5.92218819228   -1.42716202606
|386> NewECP
|387> N_core 0
|388>   lmax f
|389>   s 2
|390>    1      0.860000       9.191690  2
|391>    2      0.172000       0.008301  2
|392>   p 2
|393>    1      0.860000      17.997720  2
|394>    2      0.172000      -0.032600  2
|395>   d 2
|396>    1      1.600000      -9.504310  2
|397>    2      0.320000      -0.151370  2
|398>   f 1
|399>    1      1.000000000    0.000000000 2
|400> end
|401> Ti>    4.00000000000   -3.25401610555   -5.92218819228   -1.42716202606
|402> NewECP
|403> N_core 0
|404>   lmax f
|405>   s 2
|406>    1      0.860000       9.191690  2
|407>    2      0.172000       0.008301  2
|408>   p 2
|409>    1      0.860000      17.997720  2
|410>    2      0.172000      -0.032600  2
|411>   d 2
|412>    1      1.600000      -9.504310  2
|413>    2      0.320000      -0.151370  2
|414>   f 1
|415>    1      1.000000000    0.000000000 2
|416> end
|417> Ti>    4.00000000000    3.25395195581    4.44163984770   -4.59991284715
|418> NewECP
|419> N_core 0
|420>   lmax f
|421>   s 2
|422>    1      0.860000       9.191690  2
|423>    2      0.172000       0.008301  2
|424>   p 2
|425>    1      0.860000      17.997720  2
|426>    2      0.172000      -0.032600  2
|427>   d 2
|428>    1      1.600000      -9.504310  2
|429>    2      0.320000      -0.151370  2
|430>   f 1
|431>    1      1.000000000    0.000000000 2
|432> end
|433> Ti>    4.00000000000    3.25395215162   -4.44164173655   -4.59991327640
|434> NewECP
|435> N_core 0
|436>   lmax f
|437>   s 2
|438>    1      0.860000       9.191690  2
|439>    2      0.172000       0.008301  2
|440>   p 2
|441>    1      0.860000      17.997720  2
|442>    2      0.172000      -0.032600  2
|443>   d 2
|444>    1      1.600000      -9.504310  2
|445>    2      0.320000      -0.151370  2
|446>   f 1
|447>    1      1.000000000    0.000000000 2
|448> end
|449> Ti>    4.00000000000   -3.25408734165    4.44163984770   -4.59991284715
|450> NewECP
|451> N_core 0
|452>   lmax f
|453>   s 2
|454>    1      0.860000       9.191690  2
|455>    2      0.172000       0.008301  2
|456>   p 2
|457>    1      0.860000      17.997720  2
|458>    2      0.172000      -0.032600  2
|459>   d 2
|460>    1      1.600000      -9.504310  2
|461>    2      0.320000      -0.151370  2
|462>   f 1
|463>    1      1.000000000    0.000000000 2
|464> end
|465> Ti>    4.00000000000   -3.25408714585   -4.44164173655   -4.59991327640
|466> NewECP
|467> N_core 0
|468>   lmax f
|469>   s 2
|470>    1      0.860000       9.191690  2
|471>    2      0.172000       0.008301  2
|472>   p 2
|473>    1      0.860000      17.997720  2
|474>    2      0.172000      -0.032600  2
|475>   d 2
|476>    1      1.600000      -9.504310  2
|477>    2      0.320000      -0.151370  2
|478>   f 1
|479>    1      1.000000000    0.000000000 2
|480> end
|481> Ti>    4.00000000000   -0.00005220374    5.92218636178   -4.41288396045
|482> NewECP
|483> N_core 0
|484>   lmax f
|485>   s 2
|486>    1      0.860000       9.191690  2
|487>    2      0.172000       0.008301  2
|488>   p 2
|489>    1      0.860000      17.997720  2
|490>    2      0.172000      -0.032600  2
|491>   d 2
|492>    1      1.600000      -9.504310  2
|493>    2      0.320000      -0.151370  2
|494>   f 1
|495>    1      1.000000000    0.000000000 2
|496> end
|497> Ti>    4.00000000000   -0.00005220374   -5.92218778207   -4.41288396045
|498> NewECP
|499> N_core 0
|500>   lmax f
|501>   s 2
|502>    1      0.860000       9.191690  2
|503>    2      0.172000       0.008301  2
|504>   p 2
|505>    1      0.860000      17.997720  2
|506>    2      0.172000      -0.032600  2
|507>   d 2
|508>    1      1.600000      -9.504310  2
|509>    2      0.320000      -0.151370  2
|510>   f 1
|511>    1      1.000000000    0.000000000 2
|512> end
|513> Ti>    4.00000000000    0.00000536997    7.40273856892   -1.06892606631
|514> NewECP
|515> N_core 0
|516>   lmax f
|517>   s 2
|518>    1      0.860000       9.191690  2
|519>    2      0.172000       0.008301  2
|520>   p 2
|521>    1      0.860000      17.997720  2
|522>    2      0.172000      -0.032600  2
|523>   d 2
|524>    1      1.600000      -9.504310  2
|525>    2      0.320000      -0.151370  2
|526>   f 1
|527>    1      1.000000000    0.000000000 2
|528> end
|529> Ti>    4.00000000000    0.00000552101   -7.40274019579   -1.06892138720
|530> NewECP
|531> N_core 0
|532>   lmax f
|533>   s 2
|534>    1      0.860000       9.191690  2
|535>    2      0.172000       0.008301  2
|536>   p 2
|537>    1      0.860000      17.997720  2
|538>    2      0.172000      -0.032600  2
|539>   d 2
|540>    1      1.600000      -9.504310  2
|541>    2      0.320000      -0.151370  2
|542>   f 1
|543>    1      1.000000000    0.000000000 2
|544> end
|545> Ti>    4.00000000000    6.50798709372   -0.00000071014   -4.41288396045
|546> NewECP
|547> N_core 0
|548>   lmax f
|549>   s 2
|550>    1      0.860000       9.191690  2
|551>    2      0.172000       0.008301  2
|552>   p 2
|553>    1      0.860000      17.997720  2
|554>    2      0.172000      -0.032600  2
|555>   d 2
|556>    1      1.600000      -9.504310  2
|557>    2      0.320000      -0.151370  2
|558>   f 1
|559>    1      1.000000000    0.000000000 2
|560> end
|561> Ti>    4.00000000000   -6.50809150121   -0.00000071014   -4.41288396045
|562> NewECP
|563> N_core 0
|564>   lmax f
|565>   s 2
|566>    1      0.860000       9.191690  2
|567>    2      0.172000       0.008301  2
|568>   p 2
|569>    1      0.860000      17.997720  2
|570>    2      0.172000      -0.032600  2
|571>   d 2
|572>    1      1.600000      -9.504310  2
|573>    2      0.320000      -0.151370  2
|574>   f 1
|575>    1      1.000000000    0.000000000 2
|576> end
|577> Ti>    4.00000000000   -0.00000306899    1.48054576566   -7.78540932970
|578> NewECP
|579> N_core 0
|580>   lmax f
|581>   s 2
|582>    1      0.860000       9.191690  2
|583>    2      0.172000       0.008301  2
|584>   p 2
|585>    1      0.860000      17.997720  2
|586>    2      0.172000      -0.032600  2
|587>   d 2
|588>    1      1.600000      -9.504310  2
|589>    2      0.320000      -0.151370  2
|590>   f 1
|591>    1      1.000000000    0.000000000 2
|592> end
|593> Ti>    4.00000000000   -0.00000306899   -1.48054777030   -7.78540932970
|594> NewECP
|595> N_core 0
|596>   lmax f
|597>   s 2
|598>    1      0.860000       9.191690  2
|599>    2      0.172000       0.008301  2
|600>   p 2
|601>    1      0.860000      17.997720  2
|602>    2      0.172000      -0.032600  2
|603>   d 2
|604>    1      1.600000      -9.504310  2
|605>    2      0.320000      -0.151370  2
|606>   f 1
|607>    1      1.000000000    0.000000000 2
|608> end
|609> Ti>    4.00000000000   -6.50803377645    4.44163394806   -1.06892138720
|610> NewECP
|611> N_core 0
|612>   lmax f
|613>   s 2
|614>    1      0.860000       9.191690  2
|615>    2      0.172000       0.008301  2
|616>   p 2
|617>    1      0.860000      17.997720  2
|618>    2      0.172000      -0.032600  2
|619>   d 2
|620>    1      1.600000      -9.504310  2
|621>    2      0.320000      -0.151370  2
|622>   f 1
|623>    1      1.000000000    0.000000000 2
|624> end
|625> Ti>    4.00000000000    6.50804481848    4.44163394806   -1.06892138720
|626> NewECP
|627> N_core 0
|628>   lmax f
|629>   s 2
|630>    1      0.860000       9.191690  2
|631>    2      0.172000       0.008301  2
|632>   p 2
|633>    1      0.860000      17.997720  2
|634>    2      0.172000      -0.032600  2
|635>   d 2
|636>    1      1.600000      -9.504310  2
|637>    2      0.320000      -0.151370  2
|638>   f 1
|639>    1      1.000000000    0.000000000 2
|640> end
|641> Ti>    4.00000000000    6.50804466744   -4.44163557493   -1.06892606631
|642> NewECP
|643> N_core 0
|644>   lmax f
|645>   s 2
|646>    1      0.860000       9.191690  2
|647>    2      0.172000       0.008301  2
|648>   p 2
|649>    1      0.860000      17.997720  2
|650>    2      0.172000      -0.032600  2
|651>   d 2
|652>    1      1.600000      -9.504310  2
|653>    2      0.320000      -0.151370  2
|654>   f 1
|655>    1      1.000000000    0.000000000 2
|656> end
|657> Ti>    4.00000000000   -6.50803392749   -4.44163557493   -1.06892606631
|658> NewECP
|659> N_core 0
|660>   lmax f
|661>   s 2
|662>    1      0.860000       9.191690  2
|663>    2      0.172000       0.008301  2
|664>   p 2
|665>    1      0.860000      17.997720  2
|666>    2      0.172000      -0.032600  2
|667>   d 2
|668>    1      1.600000      -9.504310  2
|669>    2      0.320000      -0.151370  2
|670>   f 1
|671>    1      1.000000000    0.000000000 2
|672> end
|673> Ti>    4.00000000000    6.50798723387    2.96109301637   -4.41288206312
|674> NewECP
|675> N_core 0
|676>   lmax f
|677>   s 2
|678>    1      0.860000       9.191690  2
|679>    2      0.172000       0.008301  2
|680>   p 2
|681>    1      0.860000      17.997720  2
|682>    2      0.172000      -0.032600  2
|683>   d 2
|684>    1      1.600000      -9.504310  2
|685>    2      0.320000      -0.151370  2
|686>   f 1
|687>    1      1.000000000    0.000000000 2
|688> end
|689> Ti>    4.00000000000    6.50798723387   -2.96109405556   -4.41288206312
|690> NewECP
|691> N_core 0
|692>   lmax f
|693>   s 2
|694>    1      0.860000       9.191690  2
|695>    2      0.172000       0.008301  2
|696>   p 2
|697>    1      0.860000      17.997720  2
|698>    2      0.172000      -0.032600  2
|699>   d 2
|700>    1      1.600000      -9.504310  2
|701>    2      0.320000      -0.151370  2
|702>   f 1
|703>    1      1.000000000    0.000000000 2
|704> end
|705> Ti>    4.00000000000   -6.50809136106    2.96109301637   -4.41288206312
|706> NewECP
|707> N_core 0
|708>   lmax f
|709>   s 2
|710>    1      0.860000       9.191690  2
|711>    2      0.172000       0.008301  2
|712>   p 2
|713>    1      0.860000      17.997720  2
|714>    2      0.172000      -0.032600  2
|715>   d 2
|716>    1      1.600000      -9.504310  2
|717>    2      0.320000      -0.151370  2
|718>   f 1
|719>    1      1.000000000    0.000000000 2
|720> end
|721> Ti>    4.00000000000   -6.50809136106   -2.96109405556   -4.41288206312
|722> NewECP
|723> N_core 0
|724>   lmax f
|725>   s 2
|726>    1      0.860000       9.191690  2
|727>    2      0.172000       0.008301  2
|728>   p 2
|729>    1      0.860000      17.997720  2
|730>    2      0.172000      -0.032600  2
|731>   d 2
|732>    1      1.600000      -9.504310  2
|733>    2      0.320000      -0.151370  2
|734>   f 1
|735>    1      1.000000000    0.000000000 2
|736> end
|737> Ti>    4.00000000000    3.25401657974   -0.00000100232   -7.78540932970
|738> NewECP
|739> N_core 0
|740>   lmax f
|741>   s 2
|742>    1      0.860000       9.191690  2
|743>    2      0.172000       0.008301  2
|744>   p 2
|745>    1      0.860000      17.997720  2
|746>    2      0.172000      -0.032600  2
|747>   d 2
|748>    1      1.600000      -9.504310  2
|749>    2      0.320000      -0.151370  2
|750>   f 1
|751>    1      1.000000000    0.000000000 2
|752> end
|753> Ti>    4.00000000000   -3.25402271772   -0.00000100232   -7.78540932970
|754> NewECP
|755> N_core 0
|756>   lmax f
|757>   s 2
|758>    1      0.860000       9.191690  2
|759>    2      0.172000       0.008301  2
|760>   p 2
|761>    1      0.860000      17.997720  2
|762>    2      0.172000      -0.032600  2
|763>   d 2
|764>    1      1.600000      -9.504310  2
|765>    2      0.320000      -0.151370  2
|766>   f 1
|767>    1      1.000000000    0.000000000 2
|768> end
|769> Ti>    4.00000000000   -3.25402271772    2.96109253364   -7.78540932970
|770> NewECP
|771> N_core 0
|772>   lmax f
|773>   s 2
|774>    1      0.860000       9.191690  2
|775>    2      0.172000       0.008301  2
|776>   p 2
|777>    1      0.860000      17.997720  2
|778>    2      0.172000      -0.032600  2
|779>   d 2
|780>    1      1.600000      -9.504310  2
|781>    2      0.320000      -0.151370  2
|782>   f 1
|783>    1      1.000000000    0.000000000 2
|784> end
|785> Ti>    4.00000000000    3.25401657974    2.96109253364   -7.78540932970
|786> NewECP
|787> N_core 0
|788>   lmax f
|789>   s 2
|790>    1      0.860000       9.191690  2
|791>    2      0.172000       0.008301  2
|792>   p 2
|793>    1      0.860000      17.997720  2
|794>    2      0.172000      -0.032600  2
|795>   d 2
|796>    1      1.600000      -9.504310  2
|797>    2      0.320000      -0.151370  2
|798>   f 1
|799>    1      1.000000000    0.000000000 2
|800> end
|801> Ti>    4.00000000000    3.25401657974   -2.96109453828   -7.78540932970
|802> NewECP
|803> N_core 0
|804>   lmax f
|805>   s 2
|806>    1      0.860000       9.191690  2
|807>    2      0.172000       0.008301  2
|808>   p 2
|809>    1      0.860000      17.997720  2
|810>    2      0.172000      -0.032600  2
|811>   d 2
|812>    1      1.600000      -9.504310  2
|813>    2      0.320000      -0.151370  2
|814>   f 1
|815>    1      1.000000000    0.000000000 2
|816> end
|817> Ti>    4.00000000000   -3.25402271772   -2.96109453828   -7.78540932970
|818> NewECP
|819> N_core 0
|820>   lmax f
|821>   s 2
|822>    1      0.860000       9.191690  2
|823>    2      0.172000       0.008301  2
|824>   p 2
|825>    1      0.860000      17.997720  2
|826>    2      0.172000      -0.032600  2
|827>   d 2
|828>    1      1.600000      -9.504310  2
|829>    2      0.320000      -0.151370  2
|830>   f 1
|831>    1      1.000000000    0.000000000 2
|832> end
|833> Ti>    4.00000000000   -0.00000306899    4.44163930162   -7.78540932970
|834> NewECP
|835> N_core 0
|836>   lmax f
|837>   s 2
|838>    1      0.860000       9.191690  2
|839>    2      0.172000       0.008301  2
|840>   p 2
|841>    1      0.860000      17.997720  2
|842>    2      0.172000      -0.032600  2
|843>   d 2
|844>    1      1.600000      -9.504310  2
|845>    2      0.320000      -0.151370  2
|846>   f 1
|847>    1      1.000000000    0.000000000 2
|848> end
|849> Ti>    4.00000000000   -0.00000306899   -4.44164130627   -7.78540932970
|850> NewECP
|851> N_core 0
|852>   lmax f
|853>   s 2
|854>    1      0.860000       9.191690  2
|855>    2      0.172000       0.008301  2
|856>   p 2
|857>    1      0.860000      17.997720  2
|858>    2      0.172000      -0.032600  2
|859>   d 2
|860>    1      1.600000      -9.504310  2
|861>    2      0.320000      -0.151370  2
|862>   f 1
|863>    1      1.000000000    0.000000000 2
|864> end
|865> Ti>    4.00000000000   -3.25408714585    7.40273240730   -4.59991327640
|866> NewECP
|867> N_core 0
|868>   lmax f
|869>   s 2
|870>    1      0.860000       9.191690  2
|871>    2      0.172000       0.008301  2
|872>   p 2
|873>    1      0.860000      17.997720  2
|874>    2      0.172000      -0.032600  2
|875>   d 2
|876>    1      1.600000      -9.504310  2
|877>    2      0.320000      -0.151370  2
|878>   f 1
|879>    1      1.000000000    0.000000000 2
|880> end
|881> Ti>    4.00000000000    3.25395215162    7.40273240730   -4.59991327640
|882> NewECP
|883> N_core 0
|884>   lmax f
|885>   s 2
|886>    1      0.860000       9.191690  2
|887>    2      0.172000       0.008301  2
|888>   p 2
|889>    1      0.860000      17.997720  2
|890>    2      0.172000      -0.032600  2
|891>   d 2
|892>    1      1.600000      -9.504310  2
|893>    2      0.320000      -0.151370  2
|894>   f 1
|895>    1      1.000000000    0.000000000 2
|896> end
|897> Ti>    4.00000000000    3.25395195581   -7.40273429615   -4.59991284715
|898> NewECP
|899> N_core 0
|900>   lmax f
|901>   s 2
|902>    1      0.860000       9.191690  2
|903>    2      0.172000       0.008301  2
|904>   p 2
|905>    1      0.860000      17.997720  2
|906>    2      0.172000      -0.032600  2
|907>   d 2
|908>    1      1.600000      -9.504310  2
|909>    2      0.320000      -0.151370  2
|910>   f 1
|911>    1      1.000000000    0.000000000 2
|912> end
|913> Ti>    4.00000000000   -3.25408734165   -7.40273429615   -4.59991284715
|914> NewECP
|915> N_core 0
|916>   lmax f
|917>   s 2
|918>    1      0.860000       9.191690  2
|919>    2      0.172000       0.008301  2
|920>   p 2
|921>    1      0.860000      17.997720  2
|922>    2      0.172000      -0.032600  2
|923>   d 2
|924>    1      1.600000      -9.504310  2
|925>    2      0.320000      -0.151370  2
|926>   f 1
|927>    1      1.000000000    0.000000000 2
|928> end
|929> Ti>    4.00000000000   -3.25401668289    8.88328009748   -1.42716235830
|930> NewECP
|931> N_core 0
|932>   lmax f
|933>   s 2
|934>    1      0.860000       9.191690  2
|935>    2      0.172000       0.008301  2
|936>   p 2
|937>    1      0.860000      17.997720  2
|938>    2      0.172000      -0.032600  2
|939>   d 2
|940>    1      1.600000      -9.504310  2
|941>    2      0.320000      -0.151370  2
|942>   f 1
|943>    1      1.000000000    0.000000000 2
|944> end
|945> Ti>    4.00000000000    3.25402261457    8.88328009748   -1.42716235830
|946> NewECP
|947> N_core 0
|948>   lmax f
|949>   s 2
|950>    1      0.860000       9.191690  2
|951>    2      0.172000       0.008301  2
|952>   p 2
|953>    1      0.860000      17.997720  2
|954>    2      0.172000      -0.032600  2
|955>   d 2
|956>    1      1.600000      -9.504310  2
|957>    2      0.320000      -0.151370  2
|958>   f 1
|959>    1      1.000000000    0.000000000 2
|960> end
|961> Ti>    4.00000000000    3.25402261457   -8.88328111830   -1.42716235830
|962> NewECP
|963> N_core 0
|964>   lmax f
|965>   s 2
|966>    1      0.860000       9.191690  2
|967>    2      0.172000       0.008301  2
|968>   p 2
|969>    1      0.860000      17.997720  2
|970>    2      0.172000      -0.032600  2
|971>   d 2
|972>    1      1.600000      -9.504310  2
|973>    2      0.320000      -0.151370  2
|974>   f 1
|975>    1      1.000000000    0.000000000 2
|976> end
|977> Ti>    4.00000000000   -3.25401668289   -8.88328111830   -1.42716235830
|978> NewECP
|979> N_core 0
|980>   lmax f
|981>   s 2
|982>    1      0.860000       9.191690  2
|983>    2      0.172000       0.008301  2
|984>   p 2
|985>    1      0.860000      17.997720  2
|986>    2      0.172000      -0.032600  2
|987>   d 2
|988>    1      1.600000      -9.504310  2
|989>    2      0.320000      -0.151370  2
|990>   f 1
|991>    1      1.000000000    0.000000000 2
|992> end
|993> Ti>    4.00000000000   -0.00005206359    8.88328008829   -4.41288206312
|994> NewECP
|995> N_core 0
|996>   lmax f
|997>   s 2
|998>    1      0.860000       9.191690  2
|999>    2      0.172000       0.008301  2
|1000>   p 2
|1001>    1      0.860000      17.997720  2
|1002>    2      0.172000      -0.032600  2
|1003>   d 2
|1004>    1      1.600000      -9.504310  2
|1005>    2      0.320000      -0.151370  2
|1006>   f 1
|1007>    1      1.000000000    0.000000000 2
|1008> end
|1009> Ti>    4.00000000000   -0.00005206359   -8.88328112748   -4.41288206312
|1010> NewECP
|1011> N_core 0
|1012>   lmax f
|1013>   s 2
|1014>    1      0.860000       9.191690  2
|1015>    2      0.172000       0.008301  2
|1016>   p 2
|1017>    1      0.860000      17.997720  2
|1018>    2      0.172000      -0.032600  2
|1019>   d 2
|1020>    1      1.600000      -9.504310  2
|1021>    2      0.320000      -0.151370  2
|1022>   f 1
|1023>    1      1.000000000    0.000000000 2
|1024> end
|1025> Ti>    4.00000000000   -3.25402271772    5.92218606960   -7.78540932970
|1026> NewECP
|1027> N_core 0
|1028>   lmax f
|1029>   s 2
|1030>    1      0.860000       9.191690  2
|1031>    2      0.172000       0.008301  2
|1032>   p 2
|1033>    1      0.860000      17.997720  2
|1034>    2      0.172000      -0.032600  2
|1035>   d 2
|1036>    1      1.600000      -9.504310  2
|1037>    2      0.320000      -0.151370  2
|1038>   f 1
|1039>    1      1.000000000    0.000000000 2
|1040> end
|1041> Ti>    4.00000000000    3.25401657974    5.92218606960   -7.78540932970
|1042> NewECP
|1043> N_core 0
|1044>   lmax f
|1045>   s 2
|1046>    1      0.860000       9.191690  2
|1047>    2      0.172000       0.008301  2
|1048>   p 2
|1049>    1      0.860000      17.997720  2
|1050>    2      0.172000      -0.032600  2
|1051>   d 2
|1052>    1      1.600000      -9.504310  2
|1053>    2      0.320000      -0.151370  2
|1054>   f 1
|1055>    1      1.000000000    0.000000000 2
|1056> end
|1057> Ti>    4.00000000000    3.25401657974   -5.92218807425   -7.78540932970
|1058> NewECP
|1059> N_core 0
|1060>   lmax f
|1061>   s 2
|1062>    1      0.860000       9.191690  2
|1063>    2      0.172000       0.008301  2
|1064>   p 2
|1065>    1      0.860000      17.997720  2
|1066>    2      0.172000      -0.032600  2
|1067>   d 2
|1068>    1      1.600000      -9.504310  2
|1069>    2      0.320000      -0.151370  2
|1070>   f 1
|1071>    1      1.000000000    0.000000000 2
|1072> end
|1073> Ti>    4.00000000000   -3.25402271772   -5.92218807425   -7.78540932970
|1074> NewECP
|1075> N_core 0
|1076>   lmax f
|1077>   s 2
|1078>    1      0.860000       9.191690  2
|1079>    2      0.172000       0.008301  2
|1080>   p 2
|1081>    1      0.860000      17.997720  2
|1082>    2      0.172000      -0.032600  2
|1083>   d 2
|1084>    1      1.600000      -9.504310  2
|1085>    2      0.320000      -0.151370  2
|1086>   f 1
|1087>    1      1.000000000    0.000000000 2
|1088> end
|1089> Ti>    4.00000000000   -0.00000306899    7.40273283758   -7.78540932970
|1090> NewECP
|1091> N_core 0
|1092>   lmax f
|1093>   s 2
|1094>    1      0.860000       9.191690  2
|1095>    2      0.172000       0.008301  2
|1096>   p 2
|1097>    1      0.860000      17.997720  2
|1098>    2      0.172000      -0.032600  2
|1099>   d 2
|1100>    1      1.600000      -9.504310  2
|1101>    2      0.320000      -0.151370  2
|1102>   f 1
|1103>    1      1.000000000    0.000000000 2
|1104> end
|1105> Ti>    4.00000000000   -0.00000306899   -7.40273484223   -7.78540932970
|1106> NewECP
|1107> N_core 0
|1108>   lmax f
|1109>   s 2
|1110>    1      0.860000       9.191690  2
|1111>    2      0.172000       0.008301  2
|1112>   p 2
|1113>    1      0.860000      17.997720  2
|1114>    2      0.172000      -0.032600  2
|1115>   d 2
|1116>    1      1.600000      -9.504310  2
|1117>    2      0.320000      -0.151370  2
|1118>   f 1
|1119>    1      1.000000000    0.000000000 2
|1120> end
|1121>   end
|1122> endd                         ****END OF INPUT****
================================================================================

                       ****************************
                       * Single Point Calculation *
                       ****************************

---------------------------------
CARTESIAN COORDINATES (ANGSTROEM)
---------------------------------
  O      0.000000    0.000000    0.000000
  Ti     0.000005    1.480551   -1.068926
  Ti     0.000006   -1.480553   -1.068921
  O      0.000004   -0.000001   -2.548403
  O     -2.035259    1.480545   -1.111494
  O      2.035265    1.480545   -1.111492
  O      2.035265   -1.480547   -1.111493
  O     -2.035259   -1.480547   -1.111495
  O     -0.000000    2.961092   -0.000003
  O     -0.000000   -2.961096   -0.000003
  O      0.000004    2.961092   -2.548404
  O      0.000004   -2.961095   -2.548404
  Ti>    3.254023   -0.000001   -1.427162
  Ti>   -3.254016   -0.000001   -1.427162
  Ti>   -0.000052   -0.000001   -4.412884
  Ti>    0.000006    4.441634   -1.068921
  Ti>    0.000005   -4.441636   -1.068926
  Ti>   -3.254017    2.961093   -1.427162
  Ti>    3.254023    2.961093   -1.427162
  Ti>    3.254023   -2.961094   -1.427162
  Ti>   -3.254017   -2.961094   -1.427162
  Ti>   -0.000052    2.961093   -4.412882
  Ti>   -0.000052   -2.961094   -4.412882
  Ti>    3.253952    1.480545   -4.599913
  Ti>    3.253952   -1.480547   -4.599913
  Ti>   -3.254087    1.480545   -4.599913
  Ti>   -3.254087   -1.480547   -4.599913
  Ti>   -6.508034    1.480551   -1.068926
  Ti>    6.508045    1.480551   -1.068926
  Ti>    6.508045   -1.480553   -1.068921
  Ti>   -6.508034   -1.480553   -1.068921
  Ti>   -3.254016    5.922186   -1.427162
  Ti>    3.254023    5.922186   -1.427162
  Ti>    3.254023   -5.922188   -1.427162
  Ti>   -3.254016   -5.922188   -1.427162
  Ti>    3.253952    4.441640   -4.599913
  Ti>    3.253952   -4.441642   -4.599913
  Ti>   -3.254087    4.441640   -4.599913
  Ti>   -3.254087   -4.441642   -4.599913
  Ti>   -0.000052    5.922186   -4.412884
  Ti>   -0.000052   -5.922188   -4.412884
  Ti>    0.000005    7.402739   -1.068926
  Ti>    0.000006   -7.402740   -1.068921
  Ti>    6.507987   -0.000001   -4.412884
  Ti>   -6.508092   -0.000001   -4.412884
  Ti>   -0.000003    1.480546   -7.785409
  Ti>   -0.000003   -1.480548   -7.785409
  Ti>   -6.508034    4.441634   -1.068921
  Ti>    6.508045    4.441634   -1.068921
  Ti>    6.508045   -4.441636   -1.068926
  Ti>   -6.508034   -4.441636   -1.068926
  Ti>    6.507987    2.961093   -4.412882
  Ti>    6.507987   -2.961094   -4.412882
  Ti>   -6.508091    2.961093   -4.412882
  Ti>   -6.508091   -2.961094   -4.412882
  Ti>    3.254017   -0.000001   -7.785409
  Ti>   -3.254023   -0.000001   -7.785409
  Ti>   -3.254023    2.961093   -7.785409
  Ti>    3.254017    2.961093   -7.785409
  Ti>    3.254017   -2.961095   -7.785409
  Ti>   -3.254023   -2.961095   -7.785409
  Ti>   -0.000003    4.441639   -7.785409
  Ti>   -0.000003   -4.441641   -7.785409
  Ti>   -3.254087    7.402732   -4.599913
  Ti>    3.253952    7.402732   -4.599913
  Ti>    3.253952   -7.402734   -4.599913
  Ti>   -3.254087   -7.402734   -4.599913
  Ti>   -3.254017    8.883280   -1.427162
  Ti>    3.254023    8.883280   -1.427162
  Ti>    3.254023   -8.883281   -1.427162
  Ti>   -3.254017   -8.883281   -1.427162
  Ti>   -0.000052    8.883280   -4.412882
  Ti>   -0.000052   -8.883281   -4.412882
  Ti>   -3.254023    5.922186   -7.785409
  Ti>    3.254017    5.922186   -7.785409
  Ti>    3.254017   -5.922188   -7.785409
  Ti>   -3.254023   -5.922188   -7.785409
  Ti>   -0.000003    7.402733   -7.785409
  Ti>   -0.000003   -7.402735   -7.785409

----------------------------
CARTESIAN COORDINATES (A.U.)
----------------------------
  NO LB      ZA    FRAG     MASS         X           Y           Z
   0 O     0.0000    0     0.000    0.000000    0.000000    0.000000
   1 Ti   22.0000    0    47.900    0.000010    2.797837   -2.019978
   2 Ti   22.0000    0    47.900    0.000010   -2.797840   -2.019969
   3 O     8.0000    0    15.999    0.000008   -0.000002   -4.815784
   4 O     8.0000    0    15.999   -3.846082    2.797825   -2.100419
   5 O     8.0000    0    15.999    3.846094    2.797825   -2.100415
   6 O     8.0000    0    15.999    3.846093   -2.797828   -2.100417
   7 O     8.0000    0    15.999   -3.846082   -2.797829   -2.100421
   8 O     8.0000    0    15.999   -0.000001    5.595652   -0.000005
   9 O     8.0000    0    15.999   -0.000001   -5.595660   -0.000005
  10 O     8.0000    0    15.999    0.000009    5.595653   -4.815786
  11 O     8.0000    0    15.999    0.000009   -5.595659   -4.815786
  12 Ti>   4.0000    0     0.000    6.149213   -0.000002   -2.696945
  13 Ti>   4.0000    0     0.000   -6.149199   -0.000002   -2.696945
  14 Ti>   4.0000    0     0.000   -0.000099   -0.000001   -8.339142
  15 Ti>   4.0000    0     0.000    0.000010    8.393472   -2.019969
  16 Ti>   4.0000    0     0.000    0.000010   -8.393475   -2.019978
  17 Ti>   4.0000    0     0.000   -6.149200    5.595655   -2.696946
  18 Ti>   4.0000    0     0.000    6.149212    5.595655   -2.696946
  19 Ti>   4.0000    0     0.000    6.149212   -5.595657   -2.696946
  20 Ti>   4.0000    0     0.000   -6.149200   -5.595657   -2.696946
  21 Ti>   4.0000    0     0.000   -0.000098    5.595655   -8.339139
  22 Ti>   4.0000    0     0.000   -0.000098   -5.595657   -8.339139
  23 Ti>   4.0000    0     0.000    6.149078    2.797825   -8.692576
  24 Ti>   4.0000    0     0.000    6.149078   -2.797829   -8.692576
  25 Ti>   4.0000    0     0.000   -6.149334    2.797825   -8.692576
  26 Ti>   4.0000    0     0.000   -6.149334   -2.797829   -8.692576
  27 Ti>   4.0000    0     0.000  -12.298402    2.797837   -2.019978
  28 Ti>   4.0000    0     0.000   12.298422    2.797837   -2.019978
  29 Ti>   4.0000    0     0.000   12.298422   -2.797840   -2.019969
  30 Ti>   4.0000    0     0.000  -12.298402   -2.797840   -2.019969
  31 Ti>   4.0000    0     0.000   -6.149199   11.191310   -2.696945
  32 Ti>   4.0000    0     0.000    6.149213   11.191310   -2.696945
  33 Ti>   4.0000    0     0.000    6.149213  -11.191314   -2.696945
  34 Ti>   4.0000    0     0.000   -6.149199  -11.191314   -2.696945
  35 Ti>   4.0000    0     0.000    6.149078    8.393483   -8.692576
  36 Ti>   4.0000    0     0.000    6.149078   -8.393486   -8.692576
  37 Ti>   4.0000    0     0.000   -6.149334    8.393483   -8.692576
  38 Ti>   4.0000    0     0.000   -6.149334   -8.393486   -8.692576
  39 Ti>   4.0000    0     0.000   -0.000099   11.191310   -8.339142
  40 Ti>   4.0000    0     0.000   -0.000099  -11.191313   -8.339142
  41 Ti>   4.0000    0     0.000    0.000010   13.989149   -2.019978
  42 Ti>   4.0000    0     0.000    0.000010  -13.989152   -2.019969
  43 Ti>   4.0000    0     0.000   12.298313   -0.000001   -8.339142
  44 Ti>   4.0000    0     0.000  -12.298511   -0.000001   -8.339142
  45 Ti>   4.0000    0     0.000   -0.000006    2.797826  -14.712291
  46 Ti>   4.0000    0     0.000   -0.000006   -2.797830  -14.712291
  47 Ti>   4.0000    0     0.000  -12.298402    8.393472   -2.019969
  48 Ti>   4.0000    0     0.000   12.298422    8.393472   -2.019969
  49 Ti>   4.0000    0     0.000   12.298422   -8.393475   -2.019978
  50 Ti>   4.0000    0     0.000  -12.298402   -8.393475   -2.019978
  51 Ti>   4.0000    0     0.000   12.298314    5.595655   -8.339139
  52 Ti>   4.0000    0     0.000   12.298314   -5.595657   -8.339139
  53 Ti>   4.0000    0     0.000  -12.298510    5.595655   -8.339139
  54 Ti>   4.0000    0     0.000  -12.298510   -5.595657   -8.339139
  55 Ti>   4.0000    0     0.000    6.149200   -0.000002  -14.712291
  56 Ti>   4.0000    0     0.000   -6.149212   -0.000002  -14.712291
  57 Ti>   4.0000    0     0.000   -6.149212    5.595654  -14.712291
  58 Ti>   4.0000    0     0.000    6.149200    5.595654  -14.712291
  59 Ti>   4.0000    0     0.000    6.149200   -5.595658  -14.712291
  60 Ti>   4.0000    0     0.000   -6.149212   -5.595658  -14.712291
  61 Ti>   4.0000    0     0.000   -0.000006    8.393482  -14.712291
  62 Ti>   4.0000    0     0.000   -0.000006   -8.393486  -14.712291
  63 Ti>   4.0000    0     0.000   -6.149334   13.989137   -8.692576
  64 Ti>   4.0000    0     0.000    6.149078   13.989137   -8.692576
  65 Ti>   4.0000    0     0.000    6.149078  -13.989140   -8.692576
  66 Ti>   4.0000    0     0.000   -6.149334  -13.989140   -8.692576
  67 Ti>   4.0000    0     0.000   -6.149200   16.786967   -2.696946
  68 Ti>   4.0000    0     0.000    6.149212   16.786967   -2.696946
  69 Ti>   4.0000    0     0.000    6.149212  -16.786968   -2.696946
  70 Ti>   4.0000    0     0.000   -6.149200  -16.786968   -2.696946
  71 Ti>   4.0000    0     0.000   -0.000098   16.786967   -8.339139
  72 Ti>   4.0000    0     0.000   -0.000098  -16.786969   -8.339139
  73 Ti>   4.0000    0     0.000   -6.149212   11.191310  -14.712291
  74 Ti>   4.0000    0     0.000    6.149200   11.191310  -14.712291
  75 Ti>   4.0000    0     0.000    6.149200  -11.191314  -14.712291
  76 Ti>   4.0000    0     0.000   -6.149212  -11.191314  -14.712291
  77 Ti>   4.0000    0     0.000   -0.000006   13.989138  -14.712291
  78 Ti>   4.0000    0     0.000   -0.000006  -13.989141  -14.712291
> coreless ECP center with (optional) point charge

--------------------------------
INTERNAL COORDINATES (ANGSTROEM)
--------------------------------
 O      0   0   0     0.000000000000     0.00000000     0.00000000
 Ti     1   0   0     1.826098483252     0.00000000     0.00000000
 Ti     1   2   0     1.826097063306   108.34321415     0.00000000
 O      2   1   3     2.093057118869    80.80764629     0.00000000
 O      2   1   3     2.035709617889    90.70101716    89.02863937
 O      2   1   3     2.035705038603    90.70132129   270.97178739
 O      3   1   2     2.035704375863    90.70142476    89.02807847
 O      3   1   2     2.035709824520    90.70111581   270.97149260
 O      2   1   3     1.826087614204   108.34292419   179.99999251
 O      3   1   2     1.826086776018   108.34323519   180.00001748
 O      2   1   3     2.093049508223   170.84902752     0.00000000
 O      3   1   2     2.093053849171   170.84881627     0.00000000
 Ti>    7   3   1     1.943459621643   129.07739454   313.09097521
 Ti>    8   3   1     1.943458546842   129.07736791    46.90890739
 Ti>    4   2   1     1.864480942980   134.97916629   179.99739930
 Ti>    9   2   1     1.826086776009   108.34294524   179.99998252
 Ti>   10   3   1     1.826087614204   108.34294524   180.00000759
 Ti>    5   2   1     1.943460434294   129.07697438   155.26413262
 Ti>    6   2   1     1.943460549729   129.07695411   204.73573064
 Ti>    7   3   1     1.943460200909   129.07702078   155.26424088
 Ti>    8   3   1     1.943459506351   129.07704137   204.73588289
 Ti>   11   2   9     1.864477681998   134.97947132   180.00261235
 Ti>   12   3  10     1.864477681998   134.97947069   179.99738765
 Ti>   13   7   3     3.501195268645   117.99029831   293.82636289
 Ti>   24  13   7     2.961092559600    64.98414806   314.75015014
 Ti>   14   8   3     3.501195268645   117.99190683    66.17563929
 Ti>   26  14   8     2.961092559600    64.98414806    45.25001344
 Ti>   18   5   2     3.592904770073   103.75912215   182.19317944
 Ti>   19   6   2     3.592909124821   103.75914076   177.80693444
 Ti>   29  19   6     2.961104620864   114.33514894    13.70194122
 Ti>   28  18   5     2.961104620864   114.33517454   346.29812182
 Ti>   18   5   2     2.961092926020   139.62402324   342.73205762
 Ti>   19   6   2     2.961092926020   139.62403651    17.26815680
 Ti>   20   7   3     2.961094145900   139.62401672   342.73213459
 Ti>   21   8   3     2.961094145900   139.62400890    17.26767399
 Ti>   24  13   7     2.961094512320   115.01583533   134.75014177
 Ti>   25  24  13     2.961094512330   179.99998173     0.00000000
 Ti>   26  14   8     2.961094512320   115.01583533   225.25000508
 Ti>   27  26  14     2.961094512330   179.99998173     0.00000000
 Ti>   22  11   2     2.961093345411    90.00006819   179.99829400
 Ti>   23  12   3     2.961093726511    90.00000523   180.00170016
 Ti>   16   9   2     2.961104620864   144.17164420   179.99999001
 Ti>   17  10   3     2.961104620864   144.17130104   179.99998997
 Ti>   24  13   7     3.579907814782    77.15890077   245.95599690
 Ti>   27  26  14     3.579880005705    65.57043628    86.71173728
 Ti>   15   4   2     3.683197691633   156.29842650     0.00000000
 Ti>   46  15   4     2.961093535960    66.29841404   179.99359428
 Ti>   28  18   5     2.961082451064    65.66483947   166.29792358
 Ti>   29  19   6     2.961082451064    65.66487669   193.70213806
 Ti>   30  29  19     2.961082451074   179.99981884    81.86878434
 Ti>   31  28  18     2.961082451074   179.99981884   274.43353391
 Ti>   44  24  13     2.961093726511    65.57064724   248.11034328
 Ti>   44  24  13     2.961093345421   114.42936239    68.11026311
 Ti>   45  27  26     2.961093726511   114.42956738     0.00000000
 Ti>   45  27  26     2.961093345421    65.57043142   180.00003155
 Ti>   24  13   7     3.512748577370   130.05621961   314.74725307
 Ti>   26  14   8     3.512748577370   130.05621961    45.24711637
 Ti>   57  26  14     2.961093535960    65.07206331   180.00289082
 Ti>   56  24  13     2.961093535960    65.07206331   180.00289082
 Ti>   56  24  13     2.961093535960   114.92793669     0.00000000
 Ti>   57  26  14     2.961093535960   114.92793669     0.00000000
 Ti>   46  15   4     2.961093535960   113.70158596     0.00000000
 Ti>   47  46  15     2.961093535970   180.00000000     0.00000000
 Ti>   38  26  14     2.961092559600   179.99998163     0.00000000
 Ti>   36  24  13     2.961092559600   179.99998163     0.00000000
 Ti>   37  25  24     2.961092559600   179.99998173     0.00000000
 Ti>   39  27  26     2.961092559600   179.99998173     0.00000000
 Ti>   32  18   5     2.961094145910   179.99997423   164.60199535
 Ti>   33  19   6     2.961094145910   179.99997423   315.55990180
 Ti>   34  20   7     2.961092926020   179.99997423    44.44003271
 Ti>   35  21   8     2.961092926020   179.99997423   195.39805726
 Ti>   40  22  11     2.961093726511   179.99992634     4.22285443
 Ti>   41  23  12     2.961093345411   179.99992636   355.77714557
 Ti>   58  57  26     2.961093535960   180.00000000     0.00000000
 Ti>   59  56  24     2.961093535960   180.00000000     0.00000000
 Ti>   60  56  24     2.961093535970   179.99999829     0.00000000
 Ti>   61  57  26     2.961093535970   179.99999829     0.00000000
 Ti>   62  46  15     2.961093535960   179.99999879     0.00000000
 Ti>   63  47  46     2.961093535960   179.99999829     0.00000000

---------------------------
INTERNAL COORDINATES (A.U.)
---------------------------
 O      0   0   0     0.000000000000     0.00000000     0.00000000
 Ti     1   0   0     3.450826026915     0.00000000     0.00000000
 Ti     1   2   0     3.450823343607   108.34321415     0.00000000
 O      2   1   3     3.955304737318    80.80764629     0.00000000
 O      2   1   3     3.846933666000    90.70101716    89.02863937
 O      2   1   3     3.846925012404    90.70132129   270.97178739
 O      3   1   2     3.846923760006    90.70142476    89.02807847
 O      3   1   2     3.846934056476    90.70111581   270.97149260
 O      2   1   3     3.450805487392   108.34292419   179.99999251
 O      3   1   2     3.450803903448   108.34323519   180.00001748
 O      2   1   3     3.955290355280   170.84902752     0.00000000
 O      3   1   2     3.955298558482   170.84881627     0.00000000
 Ti>    7   3   1     3.672606437239   129.07739454   313.09097521
 Ti>    8   3   1     3.672604406160   129.07736791    46.90890739
 Ti>    4   2   1     3.523358364147   134.97916629   179.99739930
 Ti>    9   2   1     3.450803903433   108.34294524   179.99998252
 Ti>   10   3   1     3.450805487392   108.34294524   180.00000759
 Ti>    5   2   1     3.672607972928   129.07697438   155.26413262
 Ti>    6   2   1     3.672608191067   129.07695411   204.73573064
 Ti>    7   3   1     3.672607531894   129.07702078   155.26424088
 Ti>    8   3   1     3.672606219368   129.07704137   204.73588289
 Ti>   11   2   9     3.523352201785   134.97947132   180.00261235
 Ti>   12   3  10     3.523352201785   134.97947069   179.99738765
 Ti>   13   7   3     6.616300199121   117.99029831   293.82636289
 Ti>   24  13   7     5.595653994836    64.98414806   314.75015014
 Ti>   14   8   3     6.616300199121   117.99190683    66.17563929
 Ti>   26  14   8     5.595653994836    64.98414806    45.25001344
 Ti>   18   5   2     6.789606040697   103.75912215   182.19317944
 Ti>   19   6   2     6.789614269979   103.75914076   177.80693444
 Ti>   29  19   6     5.595676787321   114.33514894    13.70194122
 Ti>   28  18   5     5.595676787321   114.33517454   346.29812182
 Ti>   18   5   2     5.595654687269   139.62402324   342.73205762
 Ti>   19   6   2     5.595654687269   139.62403651    17.26815680
 Ti>   20   7   3     5.595656992509   139.62401672   342.73213459
 Ti>   21   8   3     5.595656992509   139.62400890    17.26767399
 Ti>   24  13   7     5.595657684942   115.01583533   134.75014177
 Ti>   25  24  13     5.595657684961   179.99998173     0.00000000
 Ti>   26  14   8     5.595657684942   115.01583533   225.25000508
 Ti>   27  26  14     5.595657684961   179.99998173     0.00000000
 Ti>   22  11   2     5.595655479803    90.00006819   179.99829400
 Ti>   23  12   3     5.595656199977    90.00000523   180.00170016
 Ti>   16   9   2     5.595676787321   144.17164420   179.99999001
 Ti>   17  10   3     5.595676787321   144.17130104   179.99998997
 Ti>   24  13   7     6.765045354623    77.15890077   245.95599690
 Ti>   27  26  14     6.764992803083    65.57043628    86.71173728
 Ti>   15   4   2     6.960234934278   156.29842650     0.00000000
 Ti>   46  15   4     5.595655839889    66.29841404   179.99359428
 Ti>   28  18   5     5.595634892471    65.66483947   166.29792358
 Ti>   29  19   6     5.595634892471    65.66487669   193.70213806
 Ti>   30  29  19     5.595634892490   179.99981884    81.86878434
 Ti>   31  28  18     5.595634892490   179.99981884   274.43353391
 Ti>   44  24  13     5.595656199977    65.57064724   248.11034328
 Ti>   44  24  13     5.595655479822   114.42936239    68.11026311
 Ti>   45  27  26     5.595656199977   114.42956738     0.00000000
 Ti>   45  27  26     5.595655479822    65.57043142   180.00003155
 Ti>   24  13   7     6.638132788552   130.05621961   314.74725307
 Ti>   26  14   8     6.638132788552   130.05621961    45.24711637
 Ti>   57  26  14     5.595655839889    65.07206331   180.00289082
 Ti>   56  24  13     5.595655839889    65.07206331   180.00289082
 Ti>   56  24  13     5.595655839889   114.92793669     0.00000000
 Ti>   57  26  14     5.595655839889   114.92793669     0.00000000
 Ti>   46  15   4     5.595655839889   113.70158596     0.00000000
 Ti>   47  46  15     5.595655839908   180.00000000     0.00000000
 Ti>   38  26  14     5.595653994836   179.99998163     0.00000000
 Ti>   36  24  13     5.595653994836   179.99998163     0.00000000
 Ti>   37  25  24     5.595653994836   179.99998173     0.00000000
 Ti>   39  27  26     5.595653994836   179.99998173     0.00000000
 Ti>   32  18   5     5.595656992527   179.99997423   164.60199535
 Ti>   33  19   6     5.595656992527   179.99997423   315.55990180
 Ti>   34  20   7     5.595654687269   179.99997423    44.44003271
 Ti>   35  21   8     5.595654687269   179.99997423   195.39805726
 Ti>   40  22  11     5.595656199977   179.99992634     4.22285443
 Ti>   41  23  12     5.595655479803   179.99992636   355.77714557
 Ti>   58  57  26     5.595655839889   180.00000000     0.00000000
 Ti>   59  56  24     5.595655839889   180.00000000     0.00000000
 Ti>   60  56  24     5.595655839908   179.99999829     0.00000000
 Ti>   61  57  26     5.595655839908   179.99999829     0.00000000
 Ti>   62  46  15     5.595655839889   179.99999879     0.00000000
 Ti>   63  47  46     5.595655839889   179.99999829     0.00000000

---------------------
BASIS SET INFORMATION
---------------------
There are 3 groups of distinct atoms

 Group   1 Type O   : 15s8p3d2f1g contracted to 7s4p3d2f1g pattern {8211111/5111/111/11/1}
 Group   2 Type Ti  : 24s18p9d3f2g contracted to 11s6p5d3f2g pattern {114111111111/951111/51111/111/11}
 Group   3 Type Q,> :  contracted to  pattern {}

Atom   0O    basis set group =>   1
Atom   1Ti   basis set group =>   2
Atom   2Ti   basis set group =>   2
Atom   3O    basis set group =>   1
Atom   4O    basis set group =>   1
Atom   5O    basis set group =>   1
Atom   6O    basis set group =>   1
Atom   7O    basis set group =>   1
Atom   8O    basis set group =>   1
Atom   9O    basis set group =>   1
Atom  10O    basis set group =>   1
Atom  11O    basis set group =>   1
Atom  12Ti>  basis set group =>   3
Atom  13Ti>  basis set group =>   3
Atom  14Ti>  basis set group =>   3
Atom  15Ti>  basis set group =>   3
Atom  16Ti>  basis set group =>   3
Atom  17Ti>  basis set group =>   3
Atom  18Ti>  basis set group =>   3
Atom  19Ti>  basis set group =>   3
Atom  20Ti>  basis set group =>   3
Atom  21Ti>  basis set group =>   3
Atom  22Ti>  basis set group =>   3
Atom  23Ti>  basis set group =>   3
Atom  24Ti>  basis set group =>   3
Atom  25Ti>  basis set group =>   3
Atom  26Ti>  basis set group =>   3
Atom  27Ti>  basis set group =>   3
Atom  28Ti>  basis set group =>   3
Atom  29Ti>  basis set group =>   3
Atom  30Ti>  basis set group =>   3
Atom  31Ti>  basis set group =>   3
Atom  32Ti>  basis set group =>   3
Atom  33Ti>  basis set group =>   3
Atom  34Ti>  basis set group =>   3
Atom  35Ti>  basis set group =>   3
Atom  36Ti>  basis set group =>   3
Atom  37Ti>  basis set group =>   3
Atom  38Ti>  basis set group =>   3
Atom  39Ti>  basis set group =>   3
Atom  40Ti>  basis set group =>   3
Atom  41Ti>  basis set group =>   3
Atom  42Ti>  basis set group =>   3
Atom  43Ti>  basis set group =>   3
Atom  44Ti>  basis set group =>   3
Atom  45Ti>  basis set group =>   3
Atom  46Ti>  basis set group =>   3
Atom  47Ti>  basis set group =>   3
Atom  48Ti>  basis set group =>   3
Atom  49Ti>  basis set group =>   3
Atom  50Ti>  basis set group =>   3
Atom  51Ti>  basis set group =>   3
Atom  52Ti>  basis set group =>   3
Atom  53Ti>  basis set group =>   3
Atom  54Ti>  basis set group =>   3
Atom  55Ti>  basis set group =>   3
Atom  56Ti>  basis set group =>   3
Atom  57Ti>  basis set group =>   3
Atom  58Ti>  basis set group =>   3
Atom  59Ti>  basis set group =>   3
Atom  60Ti>  basis set group =>   3
Atom  61Ti>  basis set group =>   3
Atom  62Ti>  basis set group =>   3
Atom  63Ti>  basis set group =>   3
Atom  64Ti>  basis set group =>   3
Atom  65Ti>  basis set group =>   3
Atom  66Ti>  basis set group =>   3
Atom  67Ti>  basis set group =>   3
Atom  68Ti>  basis set group =>   3
Atom  69Ti>  basis set group =>   3
Atom  70Ti>  basis set group =>   3
Atom  71Ti>  basis set group =>   3
Atom  72Ti>  basis set group =>   3
Atom  73Ti>  basis set group =>   3
Atom  74Ti>  basis set group =>   3
Atom  75Ti>  basis set group =>   3
Atom  76Ti>  basis set group =>   3
Atom  77Ti>  basis set group =>   3
Atom  78Ti>  basis set group =>   3
---------------------------------
AUXILIARY/J BASIS SET INFORMATION
---------------------------------
There are 3 groups of distinct atoms

 Group   1 Type O   : 12s5p4d2f1g contracted to 6s4p3d1f1g pattern {711111/2111/211/2/1}
 Group   2 Type Ti  : 19s5p5d3f3g contracted to 8s5p5d2f3g pattern {121111111/11111/11111/21/111}
 Group   3 Type Q,> :  contracted to  pattern {}

Atom   0O    basis set group =>   1
Atom   1Ti   basis set group =>   2
Atom   2Ti   basis set group =>   2
Atom   3O    basis set group =>   1
Atom   4O    basis set group =>   1
Atom   5O    basis set group =>   1
Atom   6O    basis set group =>   1
Atom   7O    basis set group =>   1
Atom   8O    basis set group =>   1
Atom   9O    basis set group =>   1
Atom  10O    basis set group =>   1
Atom  11O    basis set group =>   1
Atom  12Ti>  basis set group =>   3
Atom  13Ti>  basis set group =>   3
Atom  14Ti>  basis set group =>   3
Atom  15Ti>  basis set group =>   3
Atom  16Ti>  basis set group =>   3
Atom  17Ti>  basis set group =>   3
Atom  18Ti>  basis set group =>   3
Atom  19Ti>  basis set group =>   3
Atom  20Ti>  basis set group =>   3
Atom  21Ti>  basis set group =>   3
Atom  22Ti>  basis set group =>   3
Atom  23Ti>  basis set group =>   3
Atom  24Ti>  basis set group =>   3
Atom  25Ti>  basis set group =>   3
Atom  26Ti>  basis set group =>   3
Atom  27Ti>  basis set group =>   3
Atom  28Ti>  basis set group =>   3
Atom  29Ti>  basis set group =>   3
Atom  30Ti>  basis set group =>   3
Atom  31Ti>  basis set group =>   3
Atom  32Ti>  basis set group =>   3
Atom  33Ti>  basis set group =>   3
Atom  34Ti>  basis set group =>   3
Atom  35Ti>  basis set group =>   3
Atom  36Ti>  basis set group =>   3
Atom  37Ti>  basis set group =>   3
Atom  38Ti>  basis set group =>   3
Atom  39Ti>  basis set group =>   3
Atom  40Ti>  basis set group =>   3
Atom  41Ti>  basis set group =>   3
Atom  42Ti>  basis set group =>   3
Atom  43Ti>  basis set group =>   3
Atom  44Ti>  basis set group =>   3
Atom  45Ti>  basis set group =>   3
Atom  46Ti>  basis set group =>   3
Atom  47Ti>  basis set group =>   3
Atom  48Ti>  basis set group =>   3
Atom  49Ti>  basis set group =>   3
Atom  50Ti>  basis set group =>   3
Atom  51Ti>  basis set group =>   3
Atom  52Ti>  basis set group =>   3
Atom  53Ti>  basis set group =>   3
Atom  54Ti>  basis set group =>   3
Atom  55Ti>  basis set group =>   3
Atom  56Ti>  basis set group =>   3
Atom  57Ti>  basis set group =>   3
Atom  58Ti>  basis set group =>   3
Atom  59Ti>  basis set group =>   3
Atom  60Ti>  basis set group =>   3
Atom  61Ti>  basis set group =>   3
Atom  62Ti>  basis set group =>   3
Atom  63Ti>  basis set group =>   3
Atom  64Ti>  basis set group =>   3
Atom  65Ti>  basis set group =>   3
Atom  66Ti>  basis set group =>   3
Atom  67Ti>  basis set group =>   3
Atom  68Ti>  basis set group =>   3
Atom  69Ti>  basis set group =>   3
Atom  70Ti>  basis set group =>   3
Atom  71Ti>  basis set group =>   3
Atom  72Ti>  basis set group =>   3
Atom  73Ti>  basis set group =>   3
Atom  74Ti>  basis set group =>   3
Atom  75Ti>  basis set group =>   3
Atom  76Ti>  basis set group =>   3
Atom  77Ti>  basis set group =>   3
Atom  78Ti>  basis set group =>   3
---------------------------------
AUXILIARY/C BASIS SET INFORMATION
---------------------------------
There are 3 groups of distinct atoms

 Group   1 Type O   : 9s8p7d5f3g1h contracted to 9s8p7d5f3g1h pattern {111111111/11111111/1111111/11111/111/1}
 Group   2 Type Ti  : 15s13p11d8f7g5h2i contracted to 15s13p11d8f7g5h2i pattern {111111111111111/1111111111111/11111111111/11111111/1111111/11111/11}
 Group   3 Type Q,> :  contracted to  pattern {}

Atom   0O    basis set group =>   1
Atom   1Ti   basis set group =>   2
Atom   2Ti   basis set group =>   2
Atom   3O    basis set group =>   1
Atom   4O    basis set group =>   1
Atom   5O    basis set group =>   1
Atom   6O    basis set group =>   1
Atom   7O    basis set group =>   1
Atom   8O    basis set group =>   1
Atom   9O    basis set group =>   1
Atom  10O    basis set group =>   1
Atom  11O    basis set group =>   1
Atom  12Ti>  basis set group =>   3
Atom  13Ti>  basis set group =>   3
Atom  14Ti>  basis set group =>   3
Atom  15Ti>  basis set group =>   3
Atom  16Ti>  basis set group =>   3
Atom  17Ti>  basis set group =>   3
Atom  18Ti>  basis set group =>   3
Atom  19Ti>  basis set group =>   3
Atom  20Ti>  basis set group =>   3
Atom  21Ti>  basis set group =>   3
Atom  22Ti>  basis set group =>   3
Atom  23Ti>  basis set group =>   3
Atom  24Ti>  basis set group =>   3
Atom  25Ti>  basis set group =>   3
Atom  26Ti>  basis set group =>   3
Atom  27Ti>  basis set group =>   3
Atom  28Ti>  basis set group =>   3
Atom  29Ti>  basis set group =>   3
Atom  30Ti>  basis set group =>   3
Atom  31Ti>  basis set group =>   3
Atom  32Ti>  basis set group =>   3
Atom  33Ti>  basis set group =>   3
Atom  34Ti>  basis set group =>   3
Atom  35Ti>  basis set group =>   3
Atom  36Ti>  basis set group =>   3
Atom  37Ti>  basis set group =>   3
Atom  38Ti>  basis set group =>   3
Atom  39Ti>  basis set group =>   3
Atom  40Ti>  basis set group =>   3
Atom  41Ti>  basis set group =>   3
Atom  42Ti>  basis set group =>   3
Atom  43Ti>  basis set group =>   3
Atom  44Ti>  basis set group =>   3
Atom  45Ti>  basis set group =>   3
Atom  46Ti>  basis set group =>   3
Atom  47Ti>  basis set group =>   3
Atom  48Ti>  basis set group =>   3
Atom  49Ti>  basis set group =>   3
Atom  50Ti>  basis set group =>   3
Atom  51Ti>  basis set group =>   3
Atom  52Ti>  basis set group =>   3
Atom  53Ti>  basis set group =>   3
Atom  54Ti>  basis set group =>   3
Atom  55Ti>  basis set group =>   3
Atom  56Ti>  basis set group =>   3
Atom  57Ti>  basis set group =>   3
Atom  58Ti>  basis set group =>   3
Atom  59Ti>  basis set group =>   3
Atom  60Ti>  basis set group =>   3
Atom  61Ti>  basis set group =>   3
Atom  62Ti>  basis set group =>   3
Atom  63Ti>  basis set group =>   3
Atom  64Ti>  basis set group =>   3
Atom  65Ti>  basis set group =>   3
Atom  66Ti>  basis set group =>   3
Atom  67Ti>  basis set group =>   3
Atom  68Ti>  basis set group =>   3
Atom  69Ti>  basis set group =>   3
Atom  70Ti>  basis set group =>   3
Atom  71Ti>  basis set group =>   3
Atom  72Ti>  basis set group =>   3
Atom  73Ti>  basis set group =>   3
Atom  74Ti>  basis set group =>   3
Atom  75Ti>  basis set group =>   3
Atom  76Ti>  basis set group =>   3
Atom  77Ti>  basis set group =>   3
Atom  78Ti>  basis set group =>   3
-------------------------
ECP PARAMETER INFORMATION
-------------------------

 Group 1, Type Ti ECP (replacing 0 core electrons, lmax=3)

Atom  12Ti>  ECP group =>   1
Atom  13Ti>  ECP group =>   1
Atom  14Ti>  ECP group =>   1
Atom  15Ti>  ECP group =>   1
Atom  16Ti>  ECP group =>   1
Atom  17Ti>  ECP group =>   1
Atom  18Ti>  ECP group =>   1
Atom  19Ti>  ECP group =>   1
Atom  20Ti>  ECP group =>   1
Atom  21Ti>  ECP group =>   1
Atom  22Ti>  ECP group =>   1
Atom  23Ti>  ECP group =>   1
Atom  24Ti>  ECP group =>   1
Atom  25Ti>  ECP group =>   1
Atom  26Ti>  ECP group =>   1
Atom  27Ti>  ECP group =>   1
Atom  28Ti>  ECP group =>   1
Atom  29Ti>  ECP group =>   1
Atom  30Ti>  ECP group =>   1
Atom  31Ti>  ECP group =>   1
Atom  32Ti>  ECP group =>   1
Atom  33Ti>  ECP group =>   1
Atom  34Ti>  ECP group =>   1
Atom  35Ti>  ECP group =>   1
Atom  36Ti>  ECP group =>   1
Atom  37Ti>  ECP group =>   1
Atom  38Ti>  ECP group =>   1
Atom  39Ti>  ECP group =>   1
Atom  40Ti>  ECP group =>   1
Atom  41Ti>  ECP group =>   1
Atom  42Ti>  ECP group =>   1
Atom  43Ti>  ECP group =>   1
Atom  44Ti>  ECP group =>   1
Atom  45Ti>  ECP group =>   1
Atom  46Ti>  ECP group =>   1
Atom  47Ti>  ECP group =>   1
Atom  48Ti>  ECP group =>   1
Atom  49Ti>  ECP group =>   1
Atom  50Ti>  ECP group =>   1
Atom  51Ti>  ECP group =>   1
Atom  52Ti>  ECP group =>   1
Atom  53Ti>  ECP group =>   1
Atom  54Ti>  ECP group =>   1
Atom  55Ti>  ECP group =>   1
Atom  56Ti>  ECP group =>   1
Atom  57Ti>  ECP group =>   1
Atom  58Ti>  ECP group =>   1
Atom  59Ti>  ECP group =>   1
Atom  60Ti>  ECP group =>   1
Atom  61Ti>  ECP group =>   1
Atom  62Ti>  ECP group =>   1
Atom  63Ti>  ECP group =>   1
Atom  64Ti>  ECP group =>   1
Atom  65Ti>  ECP group =>   1
Atom  66Ti>  ECP group =>   1
Atom  67Ti>  ECP group =>   1
Atom  68Ti>  ECP group =>   1
Atom  69Ti>  ECP group =>   1
Atom  70Ti>  ECP group =>   1
Atom  71Ti>  ECP group =>   1
Atom  72Ti>  ECP group =>   1
Atom  73Ti>  ECP group =>   1
Atom  74Ti>  ECP group =>   1
Atom  75Ti>  ECP group =>   1
Atom  76Ti>  ECP group =>   1
Atom  77Ti>  ECP group =>   1
Atom  78Ti>  ECP group =>   1



           ************************************************************
           *        Program running with 16 parallel MPI-processes    *
           *              working on a common directory               *
           ************************************************************
------------------------------------------------------------------------------
                           ORCA GTO INTEGRAL CALCULATION
                           -- RI-GTO INTEGRALS CHOSEN --
------------------------------------------------------------------------------
------------------------------------------------------------------------------
                   ___                                                        
                  /   \      - P O W E R E D   B Y -                         
                 /     \                                                     
                 |  |  |   _    _      __       _____    __    __             
                 |  |  |  | |  | |    /  \     |  _  \  |  |  /  |          
                  \  \/   | |  | |   /    \    | | | |  |  | /  /          
                 / \  \   | |__| |  /  /\  \   | |_| |  |  |/  /          
                |  |  |   |  __  | /  /__\  \  |    /   |      \           
                |  |  |   | |  | | |   __   |  |    \   |  |\   \          
                \     /   | |  | | |  |  |  |  | |\  \  |  | \   \       
                 \___/    |_|  |_| |__|  |__|  |_| \__\ |__|  \__/        
                                                                              
                      - O R C A' S   B I G   F R I E N D -                    
                                      &                                       
                       - I N T E G R A L  F E E D E R -                       
                                                                              
 v1 FN, 2020, v2 2021                                                         
------------------------------------------------------------------------------


Reading SHARK input file orca.SHARKINP.tmp ... ok
----------------------
SHARK INTEGRAL PACKAGE
----------------------

Number of atoms                             ...     79
Number of basis functions                   ...    756
Number of shells                            ...    224
Maximum angular momentum                    ...      4
Integral batch strategy                     ... SHARK/LIBINT Hybrid
RI-J (if used) integral strategy            ... SPLIT-RIJ (Revised 2003 algorithm where possible)
Printlevel                                  ...      1
Contraction scheme used                     ... SEGMENTED contraction
Coulomb Range Separation                    ... NOT USED
Exchange Range Separation                   ... NOT USED
Finite Nucleus Model                        ... NOT USED
Auxiliary Coulomb fitting basis             ... AVAILABLE
   # of basis functions in Aux-J            ...    668
   # of shells in Aux-J                     ...    196
   Maximum angular momentum in Aux-J        ...      4
Auxiliary J/K fitting basis                 ... NOT available
Auxiliary Correlation fitting basis         ... AVAILABLE
   # of basis functions in Aux-C            ...   2028
   # of shells in Aux-C                     ...    452
   Maximum angular momentum in Aux-C        ...      6
Auxiliary 'external' fitting basis          ... NOT available
Integral threshold                          ...     1.000000e-12
Primitive cut-off                           ...     1.000000e-14
Primitive pair pre-selection threshold      ...     1.000000e-14

Calculating pre-screening integrals         ... done (  1.5 sec) Dimension = 224
Organizing shell pair data                  ... done (  0.6 sec)
Shell pair information
Total number of shell pairs                 ...     25200
[...]
                                                          --------------------
sum of all corrections                                         -0.013977859073
Initial total correlation energy                               -2.663348768141
Thresholds for map construction and integral transformation for fine MP2 and CCSD(T) calculation:
   TCutMKN   ...     1.0e-03
   TCutDO    ...     1.0e-02
   TCutPairs ...     1.0e-04
   TCutCMO   ...     1.0e-03
   TCutCPAO  ...     1.0e-03

Thresholds for map construction and integral transformation for strong Triples:
   TCutMKN   ...     1.0e-02
   TCutDO    ...     2.0e-02
   TCutCMO   ...     1.0e-03
   TCutCPAO  ...     1.0e-03

Thresholds for map construction and integral transformation for weak Triples:
   TCutMKN   ...     1.0e-01
   TCutDO    ...     4.0e-02
   TCutCMO   ...     1.0e-03
   TCutCPAO  ...     1.0e-03

--------------------------------
LOCAL RI TRANSFORMATION (IAVPAO)
--------------------------------

Orbital window:      27 to 63
Number of PAOs:     756
Basis functions:    756 (224 shells)
Aux. functions:    2028 (452 shells)
Use SHARK:           on

Processing maps (0.0 sec)
Average map sizes:
   Aux shells -> MOs              37.0
   Aux shells -> PAOs            756.0
   MOs        -> AO shells       224.0
   PAOs       -> AO shells       224.0

Calculating integrals (2.8 sec, 432.818 MB)
Sorting integrals (0.7 sec, 432.795 MB)
Total time for the integral transformation: 3.6 sec
--------------------------------
INITIAL GUESS AND PNO GENERATION
--------------------------------

PNO truncation parameters                   .... 
    PAOOverlapThresh   =        1.000e-08

    TCutPairs          =        1.000e-04
    TCutPNO            =        3.330e-07
    TCutPNOSingles     =        9.990e-09
    TCutMP2Pairs       =        1.000e-05
    TCutMKN            =        1.000e-03
    TCutDO             =        1.000e-02

Pair selection                          .... not used
Type of local MP2 treatment                 .... semi-local MP2
Strategy for PNO selection                  .... occupation number selection
Pair density normalization                  .... MP2 norm
Spin component scaling                      .... not used

   .... Finished loop over pairs

 PNO Occupation Number Statistics: 
  | Av. % of trace(Dij) retained        ...  97.254437650183
  | sigma^2 in % of trace(Dij) retained ...   6.47e+00
  | Av. % of trace(Di) retained         ...  99.999017026157
  | sigma^2 in % of trace(Di) retained  ...   6.10e-08
 Distributions of % trace(Dij) recovered:
  |       >= 99.9  ...    95 ( 17.4 % of all pairs)
  |   [80.0, 90.0) ...     6 (  1.1 % of all pairs)
  |   [90.0, 99.0) ...   375 ( 68.7 % of all pairs)
  |   [99.0, 99.9) ...    70 ( 12.8 % of all pairs)
 Distributions of % trace(Di) recovered :
  |       >= 99.9  ...    37 (100.0 % of all I-pairs )

Making pair pair interaction lists          ... done

                       ===========================
                        401 OF  546 PAIRS ARE KEPT
                       ===========================

Total time spent in the initial guess                 ...    28.745 sec
SL-MP2 correlation energy (all non-screened pairs)    ...      -2.662869379412 Eh

Initial PNO correlation energy                        ...      -2.649729709197 Eh
sum of pair energies estimated for screened out pairs ...      -0.000859338021 Eh
sum of MP2 pair energies for pairs that were not kept ...      -0.006217624415 Eh
sum of PNO error estimates for the kept pairs         ...      -0.006922045799 Eh
                                                          --------------------
sum of all corrections                                         -0.013999008235
Initial total correlation energy                               -2.663728717433
Thresholds for map construction and integral transformation for fine MP2 and CCSD(T) calculation:
   TCutMKN   ...     1.0e-03
   TCutDO    ...     1.0e-02
   TCutPairs ...     1.0e-04
   TCutCMO   ...     1.0e-03
   TCutCPAO  ...     1.0e-03

Time for aux screen maps:            0.007
Time for maps after fine MP2:            0.046
-----------------------------
LOCAL RI TRANSFORMATION (IJV)
-----------------------------

Orbital window:      27 to 63
Basis functions:    756 (224 shells)
Aux. functions:    2028 (452 shells)
Use SHARK:           on

Processing maps (0.0 sec)
Average map sizes:
   Aux shells -> MOs(i)           37.0
   Aux shells -> MOs(j)           37.0
   MOs        -> AO shells       224.0

Calculating integrals (2.5 sec, 21.205 MB)
Sorting integrals (0.1 sec, 21.182 MB)
Total time for the integral transformation: 2.6 sec
--------------------------------
LOCAL RI TRANSFORMATION (VABPAO)
--------------------------------

Number of PAOs:     756
Basis functions:    756 (224 shells)
Aux. functions:    2028 (452 shells)
Use SHARK:           on

Processing maps (0.0 sec)
Average map sizes:
   Aux shells -> PAOs            756.0
   PAOs       -> AO shells       224.0

Calculating integrals (7.6 sec, 8843.064 MB)
Finished


-------------------------------------
Pair Pair Term precalculation with     
RI-(ij|mn) and (im|jn) transformation  
ON THE FLY                             
-------------------------------------

   IBatch   1 (of   1)              ... done (  327.938 sec)
Total EXT                           ...         327.938 sec

---------------------
RI-PNO TRANSFORMATION
---------------------

Total Number of PNOs                   ... 11054
Average number of PNOs per pair        ...    27
Maximal number of PNOs per pair        ...   102
   #pairs with  1 -  5 PNOs   :    0
   #pairs with  6 - 10 PNOs   :   20
   #pairs with 11 - 15 PNOs   :  106
   #pairs with 16 - 20 PNOs   :   96
   #pairs with 21 - 25 PNOs   :   38
   #pairs with 26 - 30 PNOs   :   22
   #pairs with 31 - 35 PNOs   :    8
   #pairs with 36 - 40 PNOs   :    6
   #pairs with 41 - 45 PNOs   :   10
   #pairs with 46 - 50 PNOs   :   20
   #pairs with 51 - 55 PNOs   :   30
   #pairs with 56 - 60 PNOs   :   27
   #pairs with 61 - 65 PNOs   :   10
   #pairs with 66 - 70 PNOs   :    7
   #pairs with > 96 PNOs      :    1

Generation of (ij|ab)[P] integrals            ... on
Generation of (ia|bc)[P],(ja|bc)[P] integrals ... on
Storage of 3 and 4 external integrals         ... on
Generation of ALL (ka|bc)[P] integrals        ... on
Keep RI integrals in memory                   ... off

Ibatch:  1 (of  1)
Starting 2-4 index PNO integral generation ... done

Timings:
Total PNO integral transformation time     ...        254.279 sec
Size of the 3-external file                ...       166 MB
Size of the 4-external file                ...      1180 MB
Size of the IKJL file                      ...         0 MB
Size of the all 3-external file            ...      3078 MB
Size of the 1-external file                ...         9 MB

Making pair/pair overlap matrices          ... done (   36.247 sec)
Redoing the guess amplitudes               ... done (    0.013 sec)

-------------------------
FINAL STARTUP INFORMATION
-------------------------

E(0)                                       ...  -5011.922579407
E(SL-MP2)                                  ...     -2.662869379
E(SL-MP2) including corrections            ...     -2.663728717
Initial E(tot)                             ...  -5014.586308124
<T|T>                                      ...      0.659316536
Number of pairs included                   ... 401
Total number of pairs                      ... 703

------------------------------------------------
                  RHF COUPLED CLUSTER ITERATIONS
------------------------------------------------

Number of PNO amplitudes to be optimized   ...       433150
Number of non-PNO amplitudes               ...    192024464
Untruncated number of regular amplitudes   ...    336641392

Iter       E(tot)           E(Corr)          Delta-E          Residual     Time
  0  -5014.586433174     -2.649854759      0.013014620      0.023402154   16.41
                           *** Turning on DIIS ***
  1  -5014.564977236     -2.628398821      0.021455938      0.026084521   16.29
  2  -5014.622674472     -2.686096057     -0.057697235      0.010913445   16.27
  3  -5014.632613668     -2.696035253     -0.009939196      0.008181692   16.29
  4  -5014.637415200     -2.700836785     -0.004801532      0.004661482   16.28
  5  -5014.639440457     -2.702862042     -0.002025257      0.002145930   16.29
  6  -5014.639756712     -2.703178297     -0.000316256      0.001260032   16.30
  7  -5014.639999101     -2.703420686     -0.000242388      0.000531353   16.28
  8  -5014.640065021     -2.703486606     -0.000065920      0.000382189   16.33
  9  -5014.640075202     -2.703496787     -0.000010181      0.000291254   16.31
 10  -5014.640091570     -2.703513155     -0.000016368      0.000222102   16.32
 11  -5014.640100775     -2.703522360     -0.000009205      0.000145812   16.34
 12  -5014.640109895     -2.703531480     -0.000009120      0.000089506   16.29
 13  -5014.640105799     -2.703527384      0.000004097      0.000047401   16.31
 14  -5014.640100900     -2.703522485      0.000004898      0.000022829   16.32
 15  -5014.640097935     -2.703519520      0.000002966      0.000015678   16.26
 16  -5014.640096656     -2.703518241      0.000001279      0.000012947   16.28
 17  -5014.640095664     -2.703517250      0.000000991      0.000010163   16.28
 18  -5014.640095719     -2.703517304     -0.000000054      0.000007772   16.29
 19  -5014.640095515     -2.703517100      0.000000204      0.000005724   16.29
 20  -5014.640095355     -2.703516940      0.000000160      0.000004215   16.28
 21  -5014.640095302     -2.703516888      0.000000052      0.000002757   16.29
 22  -5014.640095269     -2.703516855      0.000000033      0.000001754   16.28
 23  -5014.640095258     -2.703516843      0.000000011      0.000001179   16.32
 24  -5014.640095301     -2.703516886     -0.000000043      0.000000909   16.28
               --- The Coupled-Cluster iterations have converged ---

----------------------
COUPLED CLUSTER ENERGY
----------------------

E(0)                                       ...  -5011.922579407
E(CORR)(strong-pairs)                      ...     -2.703516886
E(CORR)(weak-pairs)                        ...     -0.013999008
E(CORR)(corrected)                         ...     -2.717515894
E(TOT)                                     ...  -5014.640095301
Singles Norm <S|S>**1/2                    ...      0.175844977  
T1 diagnostic                              ...      0.020441563  

------------------
LARGEST AMPLITUDES
------------------
  49-> 64  49-> 64       0.260235
  49-> 65  -1-> -1       0.065897
  49-> 76  -1-> -1       0.056629
  49-> 65  49-> 65       0.037710
  59-> 64  -1-> -1       0.036677
  60-> 64  -1-> -1       0.036676
  39-> 65  -1-> -1       0.035395
  41-> 65  -1-> -1       0.035395
  42-> 65  -1-> -1       0.035395
  40-> 65  -1-> -1       0.035394
  49-> 75  49-> 75       0.035175
  49-> 66  49-> 66       0.033278
  60-> 64  60-> 64       0.031505
  59-> 64  59-> 64       0.031505
  44-> 65  44-> 65       0.027131
  47-> 65  47-> 65       0.027130


-------------------------------------------
DLPNO BASED TRIPLES CORRECTION
-------------------------------------------

Singles multiplier          ...  1.000000
TCutTNO                     ... 1.000e-09
TCutMP2Pairs                ... 1.000e-05
TCutDOStrong                ... 2.000e-02
TCutMKNStrong               ... 1.000e-02
TCutDOWeak                  ... 4.000e-02
TCutMKNWeak                 ... 1.000e-01

Fragment selection                          .... not used
Number of Triples that are to be computed   ...      3757

 . . . . . . . . .
10% done  
20% done  
30% done  
40% done  
50% done  
60% done  
70% done  
80% done  
90% done               (   1243.274 sec)
Triples timings:
Total time for T0               ...  1302.613 sec
Total time for Iterative (T)    ...     0.000 sec
Total time of overall (T)       ...  1347.779 sec

Triples List generation         ...     0.000 sec
TNO generation                  ...    59.291 sec
Pair density generation         ...     0.007 sec
Look up tables                  ...     0.000 sec
Generating 3-index integrals    ...  1133.926 sec
  Make 4-ind.int. from 3-ind.int...    30.653 sec
  Projecting amplitudes (D + S) ...    65.768 sec
  Downprojecting integrals      ...     0.003 sec
  Energy contr. (sum over a,b,c)...     3.949 sec
Fitting ET(->0)                 ...     0.000 sec

Everything after 3-index        ...   109.348 sec

Timing details:
 TNO integrals                  ...  1161.400 sec
   Reading 3-index integrals    ...     5.777 sec
   Sorting integrals            ...   190.784 sec
       Sorting integrals 1      ...     0.002 sec
       Sorting integrals 2      ...   185.072 sec
       Sorting integrals 3      ...     1.354 sec
       Sorting integrals 4      ...     0.168 sec
       Sorting integrals 5      ...     1.284 sec
       Sorting integrals 6      ...     2.904 sec
   Calculating local VM**-1/2   ...     6.710 sec
   Orthogonal. integrals        ...     8.383 sec
   Multipl. 3-index integrals   ...   949.747 sec
   All concerning IRIab (w/TNO) ...    11.825 sec

 Calculate W0/W1                ...     8.942 sec
 W 3-ext contribution           ...     4.243 sec
 W 3-int contribution           ...     1.707 sec
 Sorting W                      ...     2.749 sec

 V exchange contribution        ...     1.459 sec

 Timings for Triples without generation
     of 3-index integrals       ...   109.344 sec
       0 weak pairs             ...    87.175 sec
       1 weak pair              ...    22.169 sec
       2 weak pairs             ...     0.000 sec
       3 weak pairs             ...     0.000 sec
  Extra time for extrapolation  ...     0.000 sec

Number of Triples   (0, 1, 2, 3 weak pairs; overall):   2500    1257       0       0  (  3757)
Number of Atoms     (0, 1, 2, 3 weak pairs; overall):   10.4     6.9     0.0     0.0  (    79)
Number of PAOs      (0, 1, 2, 3 weak pairs; overall):  666.1   462.0     0.0     0.0  (   756)
Number of AuxFcns   (0, 1, 2, 3 weak pairs; overall): 1023.2   778.8     0.0     0.0  (  2028)
Number of TNOs      (0, 1, 2, 3 weak pairs         ):   76.7    51.4     0.0     0.0
Aver. Number of NTNO, Atoms, PAOs, AuxFcns / Triples:   3757    68.2     9.2   597.8   941.4

Triples Correction (T)                     ...     -0.124653074
Final correlation energy                   ...     -2.842168968
E(CCSD)                                    ...  -5014.640095301
E(CCSD(T))                                 ...  -5014.764748375



------------------------------------------------------------------------------- 
                                     TIMINGS                                   
------------------------------------------------------------------------------- 


Total execution time                   ...     2471.337 sec

Localization of occupied MO's          ...        1.642 sec (  0.1%)
Fock Matrix Formation                  ...       11.392 sec (  0.5%)
Global overlap, Fock, MKN matrices     ...        0.845 sec (  0.0%)
Differential overlap integrals         ...        1.037 sec (  0.0%)
Organizing maps                        ...        0.119 sec (  0.0%)
RI 3-index integral generations        ...       17.475 sec (  0.7%)
RI-PNO integral transformation         ...      627.843 sec ( 25.4%)
Initial Guess                          ...       54.213 sec (  2.2%)
DIIS Solver                            ...        1.166 sec (  0.0%)
State Vector Update                    ...        0.090 sec (  0.0%)
Sigma-vector construction              ...      406.242 sec ( 16.4%)
  <0|H|D>                              ...        0.002 sec (  0.0% of sigma)
  <D|H|D>(0-ext)                       ...        5.473 sec (  1.3% of sigma)
  <D|H|D>(2-ext Fock)                  ...        0.023 sec (  0.0% of sigma)
  <D|H|D>(2-ext)                       ...      105.507 sec ( 26.0% of sigma)
  <D|H|D>(4-ext)                       ...       42.316 sec ( 10.4% of sigma)
  <D|H|D>(4-ext-corr)                  ...      200.825 sec ( 49.4% of sigma)
  CCSD doubles correction              ...        0.290 sec (  0.1% of sigma)
  <S|H|S>                              ...        1.720 sec (  0.4% of sigma)
  <S|H|D>(1-ext)                       ...        0.889 sec (  0.2% of sigma)
  <D|H|S>(1-ext)                       ...        0.026 sec (  0.0% of sigma)
  <S|H|D>(3-ext)                       ...        0.585 sec (  0.1% of sigma)
  CCSD singles correction              ...        0.002 sec (  0.0% of sigma)
  Fock-dressing                        ...       34.877 sec (  8.6% of sigma)
  Singles amplitudes                   ...        2.266 sec (  0.6% of sigma)
  (ik|jl)-dressing                     ...        4.033 sec (  1.0% of sigma)
  (ij|ab),(ia|jb)-dressing             ...        3.299 sec (  0.8% of sigma)
  Pair energies                        ...        0.039 sec (  0.0% of sigma)
Total Time for computing (T)           ...     1348.171 sec ( 54.6% of ALL)


Maximum memory used throughout the entire MDCI-calculation: 10874.5 MB

-------------------------   --------------------
FINAL SINGLE POINT ENERGY     -5014.764748374579
-------------------------   --------------------


                            ***************************************
                            *     ORCA property calculations      *
                            ***************************************


  WARNING: The energy has been calculated at the MDCI level but the densities
           used in the property calculations are still SCF densities
           MDCI response densities have not been calculated 
           use %mdci Density linearized end
           or  %mdci Density unrelaxed end
           or  %mdci Density orbopt end

                                    ---------------------
                                    Active property flags
                                    ---------------------
   (+) Dipole Moment


------------------------------------------------------------------------------
                       ORCA ELECTRIC PROPERTIES CALCULATION
------------------------------------------------------------------------------

Dipole Moment Calculation                       ... on
Quadrupole Moment Calculation                   ... off
Polarizability Calculation                      ... off
GBWName                                         ... orca.gbw
Electron density                                ... orca.scfp
The origin for moment calculation is the CENTER OF MASS  = ( 0.000007, -0.000002 -2.331510)

-------------
DIPOLE MOMENT
-------------
                                X             Y             Z
Electronic contribution:      0.00011       0.00002       7.70682
Nuclear contribution   :     -0.01273       0.00015   -1416.82440
                        -----------------------------------------
Total Dipole Moment    :     -0.01262       0.00016   -1409.11758
                        -----------------------------------------
Magnitude (a.u.)       :   1409.11758
Magnitude (Debye)      :   3581.69226



--------------------
Rotational spectrum 
--------------------
 
Rotational constants in cm-1:     0.042112     0.016107     0.014329 
Rotational constants in MHz :  1262.475280   482.869400   429.565796 

 Dipole components along the rotational axes: 
x,y,z [a.u.] :     0.000678    -0.012096 -1409.117583 
x,y,z [Debye]:     0.001722    -0.030747 -3581.692255 

 

Timings for individual modules:

Sum of individual times         ...     3218.493 sec (=  53.642 min)
GTO integral calculation        ...      143.775 sec (=   2.396 min)   4.5 %
SCF iterations                  ...      601.279 sec (=  10.021 min)  18.7 %
MDCI module                     ...     2473.439 sec (=  41.224 min)  76.9 %
                             ****ORCA TERMINATED NORMALLY****
TOTAL RUN TIME: 0 days 0 hours 53 minutes 41 seconds 287 msec
