 vasp.6.2.0 18Jan21 (build May 10 2021 20:50:33) complex                         
 executed on        HPECrayEX_GCC date 2021.10.29  06:32:16
 running  512 mpi-ranks, with    1 threads/rank
 distrk:  each k-point on  256 cores,    2 groups
 distr:  one band on NCORE=   4 cores,   64 groups


--------------------------------------------------------------------------------------------------------


 INCAR:
   SYSTEM = TiO2-rutile
   ISMEAR = 0
   SIGMA = 0.05
   EDIFF = 1E-5
   ALGO = ALL
   ISYM = 0
   ISTART = 1
   IBRION = -1
   NSW = 0
   EDIFFG = -0.01
   ENCUT = 500
   PREC = Normal
   LASPH = .TRUE.
   LREAL = Auto
   ISPIN = 1
   NELM = 18
   NCORE = 4
   KPAR = 2
   LHFCALC = .TRUE.
   LWAVE = .TRUE.
   LCHARG = .FALSE.
   LORBIT = 11

 POTCAR:    PAW_PBE O 08Apr2002                   
 POTCAR:    PAW_PBE Ti_sv 26Sep2005               
 POTCAR:    PAW_PBE O 08Apr2002                   
   SHA256 =  818f92134a0a090dccd8ba1447fa70422a3b330e708bb4f08108d8ae51209ddf O/POTCAR              
   COPYR  = (c) Copyright 08Apr2002 Georg Kresse                                                    
   COPYR  = This file is part of the software VASP. Any use, copying, and all other rights are regul
   COPYR  = If you do not have a valid VASP license, you may not use, copy or distribute this file. 
   VRHFIN =O: s2p4                                                                                  
   LEXCH  = PE                                                                                      
   EATOM  =   432.3788 eV,   31.7789 Ry                                                             
                                                                                                    
   TITEL  = PAW_PBE O 08Apr2002                                                                     
   LULTRA =        F    use ultrasoft PP ?                                                          
   IUNSCR =        1    unscreen: 0-lin 1-nonlin 2-no                                               
   RPACOR =    1.200    partial core radius                                                         
   POMASS =   16.000; ZVAL   =    6.000    mass and valenz                                          
   RCORE  =    1.520    outmost cutoff radius                                                       
   RWIGS  =    1.550; RWIGS  =    0.820    wigner-seitz radius (au A)                               
   ENMAX  =  400.000; ENMIN  =  300.000 eV                                                          
   ICORE  =        2    local potential                                                             
   LCOR   =        T    correct aug charges                                                         
   LPAW   =        T    paw PP                                                                      
   EAUG   =  605.392                                                                                
   DEXC   =    0.000                                                                                
   RMAX   =    1.553    core radius for proj-oper                                                   
   RAUG   =    1.300    factor for augmentation sphere                                              
   RDEP   =    1.550    radius for radial grids                                                     
   RDEPT  =    1.329    core radius for aug-charge                                                  
                                                                                                    
   Atomic configuration                                                                             
    4 entries                                                                                       
     n  l   j            E        occ.                                                              
     1  0  0.50      -514.6923   2.0000                                                             
     2  0  0.50       -23.9615   2.0000                                                             
     2  1  0.50        -9.0305   4.0000                                                             
     3  2  1.50        -9.5241   0.0000                                                             
   Description                                                                                      
     l       E           TYP  RCUT    TYP  RCUT                                                     
     0    -23.9615318     23  1.200                                                                 
     0     -9.5240782     23  1.200                                                                 
     1     -9.0304911     23  1.520                                                                 
     1      8.1634956     23  1.520                                                                 
     2     -9.5240782      7  1.500                                                                 
  local pseudopotential read in
  partial core-charges read in
  partial kinetic energy density read in
  kinetic energy density of atom read in
  atomic valenz-charges read in
  non local Contribution for L=           0  read in
    real space projection operators read in
  non local Contribution for L=           0  read in
    real space projection operators read in
  non local Contribution for L=           1  read in
    real space projection operators read in
  non local Contribution for L=           1  read in
    real space projection operators read in
    PAW grid and wavefunctions read in

   number of l-projection  operators is LMAX  =           4
   number of lm-projection operators is LMMAX =           8

 POTCAR:    PAW_PBE Ti_sv 26Sep2005               
   SHA256 =  4d747badb5a5ea28d858fbac70885b3f8929d6fd9e5b0dbe1ecb9878dc164da1 Ti_sv/POTCAR          
   COPYR  = (c) Copyright 26Sep2005 Georg Kresse                                                    
   COPYR  = This file is part of the software VASP. Any use, copying, and all other rights are regul
   COPYR  = If you do not have a valid VASP license, you may not use, copy or distribute this file. 
   VRHFIN =Ti: 3p4s3d                                                                               
   LEXCH  = PE                                                                                      
   EATOM  =  1588.0892 eV,  116.7213 Ry                                                             
                                                                                                    
   TITEL  = PAW_PBE Ti_sv 26Sep2005                                                                 
   LULTRA =        F    use ultrasoft PP ?                                                          
   IUNSCR =        1    unscreen: 0-lin 1-nonlin 2-no                                               
   RPACOR =    2.000    partial core radius                                                         
   POMASS =   47.880; ZVAL   =   12.000    mass and valenz                                          
   RCORE  =    2.300    outmost cutoff radius                                                       
   RWIGS  =    2.300; RWIGS  =    1.217    wigner-seitz radius (au A)                               
   ENMAX  =  274.610; ENMIN  =  205.957 eV                                                          
   ICORE  =        3    local potential                                                             
   LCOR   =        T    correct aug charges                                                         
   LPAW   =        T    paw PP                                                                      
   EAUG   =  482.848                                                                                
   RMAX   =    2.348    core radius for proj-oper                                                   
   RAUG   =    1.300    factor for augmentation sphere                                              
   RDEP   =    2.381    radius for radial grids                                                     
   RDEPT  =    1.930    core radius for aug-charge                                                  
                                                                                                    
   Atomic configuration                                                                             
    8 entries                                                                                       
     n  l   j            E        occ.                                                              
     1  0  0.50     -4865.3608   2.0000                                                             
     2  0  0.50      -533.1368   2.0000                                                             
     2  1  1.50      -440.5031   6.0000                                                             
     3  0  0.50       -59.3186   2.0000                                                             
     4  0  0.50        -3.7291   1.0000                                                             
     3  1  1.50       -35.7012   6.0000                                                             
     3  2  2.50        -1.9157   3.0000                                                             
     4  3  2.50        -1.3606   0.0000                                                             
   Description                                                                                      
     l       E           TYP  RCUT    TYP  RCUT                                                     
     0    -59.3185931     23  1.800                                                                 
     0     -3.7290822     23  2.300                                                                 
     1    -35.7012045     23  2.300                                                                 
     1     -1.3605826     23  2.300                                                                 
     2     -1.9156920     23  2.300                                                                 
     2     -0.0236318     23  2.300                                                                 
     3     -1.3605826     23  2.300                                                                 
  local pseudopotential read in
  partial core-charges read in
  partial kinetic energy density read in
  atomic valenz-charges read in
  non local Contribution for L=           0  read in
    real space projection operators read in
  non local Contribution for L=           0  read in
    real space projection operators read in
  non local Contribution for L=           1  read in
    real space projection operators read in
  non local Contribution for L=           1  read in
    real space projection operators read in
  non local Contribution for L=           2  read in
    real space projection operators read in
  non local Contribution for L=           2  read in
    real space projection operators read in
    PAW grid and wavefunctions read in

   number of l-projection  operators is LMAX  =           6
   number of lm-projection operators is LMMAX =          18

 Optimization of the real space projectors (new method)

 maximal supplied QI-value         = 24.76
 optimisation between [QCUT,QGAM] = [ 11.39, 22.77] = [ 36.31,145.25] Ry 
 Optimized for a Real-space Cutoff    1.00 Angstroem

   l    n(q)    QCUT    max X(q) W(low)/X(q) W(high)/X(q)  e(spline) 
   0      7    11.387    20.381    0.39E-03    0.13E-02    0.15E-06
   0      7    11.387    15.268    0.42E-03    0.14E-02    0.17E-06
   1      6    11.387     5.964    0.41E-03    0.11E-02    0.17E-06
   1      6    11.387     5.382    0.39E-03    0.87E-03    0.15E-06
 Optimization of the real space projectors (new method)

 maximal supplied QI-value         = 16.25
 optimisation between [QCUT,QGAM] = [ 11.38, 22.75] = [ 36.24,144.96] Ry 
 Optimized for a Real-space Cutoff    1.27 Angstroem

   l    n(q)    QCUT    max X(q) W(low)/X(q) W(high)/X(q)  e(spline) 
   0      9    11.376    12.277    0.53E-04    0.25E-04    0.25E-07
   0      9    11.376    11.419    0.89E-04    0.67E-05    0.35E-07
   1      8    11.376     4.010    0.13E-03    0.11E-03    0.29E-07
   1      8    11.376     6.182    0.94E-04    0.19E-03    0.11E-06
   2      8    11.376    47.177    0.13E-03    0.88E-03    0.24E-06
   2      8    11.376    42.437    0.13E-03    0.86E-03    0.23E-06
  PAW_PBE O 08Apr2002                   :
 energy of atom  1       EATOM= -432.3788
 kinetic energy error for atom=    0.0224 (will be added to EATOM!!)
  PAW_PBE Ti_sv 26Sep2005               :
 energy of atom  2       EATOM=-1588.0892
 kinetic energy error for atom=    0.0046 (will be added to EATOM!!)


 POSCAR:  O Ti
  positions in direct lattice
  No initial velocities read in
 exchange correlation table for  LEXCH =        8
   RHO(1)=    0.500       N(1)  =     2000
   RHO(2)=  100.500       N(2)  =     4000



--------------------------------------------------------------------------------------------------------


 ion  position               nearest neighbor table
   1  0.098  0.125  0.264- 161 1.95 171 1.95 160 1.98
   2  0.402  0.125  0.264- 201 1.95 211 1.95 160 1.98
   3  0.250  0.000  0.218- 160 1.95 190 1.95
   4  0.250  0.000  0.310- 160 1.95 190 1.95 163 1.98
   5  0.348  0.125  0.382- 163 1.95 173 1.95 202 1.98
   6  0.152  0.125  0.382- 163 1.95 173 1.95 162 1.98
   7  0.000  0.000  0.336- 162 1.95 192 1.95 161 1.98
   8  0.000  0.000  0.428- 162 1.95 192 1.95 165 1.98
   9  0.098  0.125  0.500- 165 1.95 175 1.95 164 1.98
  10  0.402  0.125  0.500- 205 1.95 215 1.95 164 1.98
  11  0.250  0.000  0.454- 164 1.95 194 1.95 163 1.98
  12  0.250  0.000  0.546- 164 1.95 194 1.95 167 2.10
  13  0.350  0.125  0.618- 166 1.95 167 1.97 177 1.97
  14  0.150  0.125  0.618- 206 1.95 167 1.97 177 1.97
  15  0.000  1.000  0.572- 206 1.90 236 1.90 165 2.00
  16  0.000  0.000  0.665- 169 1.81 206 2.01 236 2.01
  17  0.094  0.125  0.742- 169 1.94 179 1.94 168 2.04
  18  0.406  0.125  0.742- 209 1.94 219 1.94 168 2.04
  19  0.250  0.500  0.690- 187 1.86 188 2.09 178 2.09
  20  0.250  0.000  0.782- 198 1.83 168 1.83
  21  0.098  0.375  0.264- 171 1.95 181 1.95 170 1.98
  22  0.402  0.375  0.264- 211 1.95 221 1.95 170 1.98
  23  0.250  0.250  0.218- 160 1.95 170 1.95
  24  0.250  0.250  0.310- 160 1.95 170 1.95 173 1.98
  25  0.348  0.375  0.382- 173 1.95 183 1.95 212 1.98
  26  0.152  0.375  0.382- 173 1.95 183 1.95 172 1.98
  27  0.000  0.250  0.336- 162 1.95 172 1.95 171 1.98
  28  0.000  0.250  0.428- 162 1.95 172 1.95 175 1.98
  29  0.098  0.375  0.500- 175 1.95 185 1.95 174 1.98
  30  0.402  0.375  0.500- 215 1.95 225 1.95 174 1.98
  31  0.250  0.250  0.454- 164 1.95 174 1.95 173 1.98
  32  0.250  0.250  0.546- 164 1.95 174 1.95 177 2.10
  33  0.350  0.375  0.618- 176 1.95 177 1.97 187 1.97
  34  0.150  0.375  0.618- 216 1.95 177 1.97 187 1.97
  35  0.000  0.250  0.572- 206 1.90 216 1.90 175 2.00
  36  0.000  0.250  0.665- 179 1.81 206 2.01 216 2.01
  37  0.094  0.375  0.742- 189 1.94 179 1.94 178 2.04
  38  0.406  0.375  0.742- 229 1.94 219 1.94 178 2.04
  39  0.250  0.250  0.690- 177 1.86 168 2.09 178 2.09
  40  0.250  0.250  0.782- 178 1.83 168 1.83
  41  0.098  0.625  0.264- 181 1.95 191 1.95 180 1.98
  42  0.402  0.625  0.264- 221 1.95 231 1.95 180 1.98
  43  0.250  0.500  0.218- 170 1.95 180 1.95
  44  0.250  0.500  0.310- 170 1.95 180 1.95 183 1.98
  45  0.348  0.625  0.382- 183 1.95 193 1.95 222 1.98
  46  0.152  0.625  0.382- 183 1.95 193 1.95 182 1.98
  47  0.000  0.500  0.336- 172 1.95 182 1.95 181 1.98
  48  0.000  0.500  0.428- 172 1.95 182 1.95 185 1.98
  49  0.098  0.625  0.500- 185 1.95 195 1.95 184 1.98
  50  0.402  0.625  0.500- 225 1.95 235 1.95 184 1.98
  51  0.250  0.500  0.454- 174 1.95 184 1.95 183 1.98
  52  0.250  0.500  0.546- 174 1.95 184 1.95 187 2.10
  53  0.350  0.625  0.618- 186 1.95 187 1.97 197 1.97
  54  0.150  0.625  0.618- 226 1.95 187 1.97 197 1.97
  55  0.000  0.500  0.572- 226 1.90 216 1.90 185 2.00
  56  0.000  0.500  0.665- 189 1.81 226 2.01 216 2.01
  57  0.094  0.625  0.742- 189 1.94 199 1.94 188 2.04
  58  0.406  0.625  0.742- 229 1.94 239 1.94 188 2.04
  59  0.250  1.000  0.690- 167 1.86 168 2.09 198 2.09
  60  0.098  0.875  0.264- 161 1.95 191 1.95 190 1.98
  61  0.402  0.875  0.264- 201 1.95 231 1.95 190 1.98
  62  0.250  0.750  0.218- 180 1.95 190 1.95
  63  0.250  0.750  0.310- 180 1.95 190 1.95 193 1.98
  64  0.348  0.875  0.382- 163 1.95 193 1.95 232 1.98
  65  0.152  0.875  0.382- 163 1.95 193 1.95 192 1.98
  66  0.000  0.750  0.336- 182 1.95 192 1.95 191 1.98
  67  0.000  0.750  0.428- 182 1.95 192 1.95 195 1.98
  68  0.098  0.875  0.500- 165 1.95 195 1.95 194 1.98
  69  0.402  0.875  0.500- 205 1.95 235 1.95 194 1.98
  70  0.250  0.750  0.454- 184 1.95 194 1.95 193 1.98
  71  0.250  0.750  0.546- 184 1.95 194 1.95 197 2.10
  72  0.350  0.875  0.618- 196 1.95 197 1.97 167 1.97
  73  0.150  0.875  0.618- 236 1.95 197 1.97 167 1.97
  74  0.000  0.750  0.572- 226 1.90 236 1.90 195 2.00
  75  0.000  0.750  0.665- 199 1.81 226 2.01 236 2.01
  76  0.094  0.875  0.742- 169 1.94 199 1.94 198 2.04
  77  0.406  0.875  0.742- 209 1.94 239 1.94 198 2.04
  78  0.250  0.750  0.690- 197 1.86 188 2.09 198 2.09
  79  0.250  0.750  0.782- 198 1.83 188 1.83
  80  0.598  0.125  0.264- 201 1.95 211 1.95 200 1.98
  81  0.902  0.125  0.264- 161 1.95 171 1.95 200 1.98
  82  0.750  0.000  0.218- 200 1.95 230 1.95
  83  0.750  0.000  0.310- 200 1.95 230 1.95 203 1.98
  84  0.848  0.125  0.382- 203 1.95 213 1.95 162 1.98
  85  0.652  0.125  0.382- 203 1.95 213 1.95 202 1.98
  86  0.500  0.000  0.336- 202 1.95 232 1.95 201 1.98
  87  0.500  0.000  0.428- 202 1.95 232 1.95 205 1.98
  88  0.598  0.125  0.500- 205 1.95 215 1.95 204 1.98
  89  0.902  0.125  0.500- 165 1.95 175 1.95 204 1.98
  90  0.750  0.000  0.454- 204 1.95 234 1.95 203 1.98
  91  0.750  0.000  0.546- 204 1.95 234 1.95 207 2.10
  92  0.850  0.125  0.618- 206 1.95 207 1.97 217 1.97
  93  0.650  0.125  0.618- 166 1.95 207 1.97 217 1.97
  94  0.500  1.000  0.572- 166 1.90 196 1.90 205 2.00
  95  0.500  0.000  0.665- 209 1.81 166 2.01 196 2.01
  96  0.594  0.125  0.742- 209 1.94 219 1.94 208 2.04
  97  0.906  0.125  0.742- 169 1.94 179 1.94 208 2.04
  98  0.750  0.500  0.690- 227 1.86 228 2.09 218 2.09
  99  0.750  0.000  0.782- 238 1.83 208 1.83
 100  0.598  0.375  0.264- 211 1.95 221 1.95 210 1.98
 101  0.902  0.375  0.264- 171 1.95 181 1.95 210 1.98
 102  0.750  0.250  0.218- 200 1.95 210 1.95
 103  0.750  0.250  0.310- 200 1.95 210 1.95 213 1.98
 104  0.848  0.375  0.382- 213 1.95 223 1.95 172 1.98
 105  0.652  0.375  0.382- 213 1.95 223 1.95 212 1.98
 106  0.500  0.250  0.336- 202 1.95 212 1.95 211 1.98
 107  0.500  0.250  0.428- 202 1.95 212 1.95 215 1.98
 108  0.598  0.375  0.500- 215 1.95 225 1.95 214 1.98
 109  0.902  0.375  0.500- 175 1.95 185 1.95 214 1.98
 110  0.750  0.250  0.454- 204 1.95 214 1.95 213 1.98
 111  0.750  0.250  0.546- 204 1.95 214 1.95 217 2.10
 112  0.850  0.375  0.618- 216 1.95 217 1.97 227 1.97
 113  0.650  0.375  0.618- 176 1.95 217 1.97 227 1.97
 114  0.500  0.250  0.572- 166 1.90 176 1.90 215 2.00
 115  0.500  0.250  0.665- 219 1.81 166 2.01 176 2.01
 116  0.594  0.375  0.742- 229 1.94 219 1.94 218 2.04
 117  0.906  0.375  0.742- 189 1.94 179 1.94 218 2.04
 118  0.750  0.250  0.690- 217 1.86 208 2.09 218 2.09
 119  0.750  0.250  0.782- 218 1.83 208 1.83
 120  0.598  0.625  0.264- 221 1.95 231 1.95 220 1.98
 121  0.902  0.625  0.264- 181 1.95 191 1.95 220 1.98
 122  0.750  0.500  0.218- 210 1.95 220 1.95
 123  0.750  0.500  0.310- 210 1.95 220 1.95 223 1.98
 124  0.848  0.625  0.382- 223 1.95 233 1.95 182 1.98
 125  0.652  0.625  0.382- 223 1.95 233 1.95 222 1.98
 126  0.500  0.500  0.336- 212 1.95 222 1.95 221 1.98
 127  0.500  0.500  0.428- 212 1.95 222 1.95 225 1.98
 128  0.598  0.625  0.500- 225 1.95 235 1.95 224 1.98
 129  0.902  0.625  0.500- 185 1.95 195 1.95 224 1.98
 130  0.750  0.500  0.454- 214 1.95 224 1.95 223 1.98
 131  0.750  0.500  0.546- 214 1.95 224 1.95 227 2.10
 132  0.850  0.625  0.618- 226 1.95 227 1.97 237 1.97
 133  0.650  0.625  0.618- 186 1.95 227 1.97 237 1.97
 134  0.500  0.500  0.572- 186 1.90 176 1.90 225 2.00
 135  0.500  0.500  0.665- 229 1.81 186 2.01 176 2.01
 136  0.594  0.625  0.742- 229 1.94 239 1.94 228 2.04
 137  0.906  0.625  0.742- 189 1.94 199 1.94 228 2.04
 138  0.750  1.000  0.690- 207 1.86 208 2.09 238 2.09
 139  0.750  0.500  0.782- 218 1.83 228 1.83
 140  0.598  0.875  0.264- 201 1.95 231 1.95 230 1.98
 141  0.902  0.875  0.264- 161 1.95 191 1.95 230 1.98
 142  0.750  0.750  0.218- 220 1.95 230 1.95
 143  0.750  0.750  0.310- 220 1.95 230 1.95 233 1.98
 144  0.848  0.875  0.382- 203 1.95 233 1.95 192 1.98
 145  0.652  0.875  0.382- 203 1.95 233 1.95 232 1.98
 146  0.500  0.750  0.336- 222 1.95 232 1.95 231 1.98
 147  0.500  0.750  0.428- 222 1.95 232 1.95 235 1.98
 148  0.598  0.875  0.500- 205 1.95 235 1.95 234 1.98
 149  0.902  0.875  0.500- 165 1.95 195 1.95 234 1.98
 150  0.750  0.750  0.454- 224 1.95 234 1.95 233 1.98
 151  0.750  0.750  0.546- 224 1.95 234 1.95 237 2.10
 152  0.850  0.875  0.618- 236 1.95 237 1.97 207 1.97
 153  0.650  0.875  0.618- 196 1.95 237 1.97 207 1.97
 154  0.500  0.750  0.572- 186 1.90 196 1.90 235 2.00
 155  0.500  0.750  0.665- 239 1.81 186 2.01 196 2.01
 156  0.594  0.875  0.742- 209 1.94 239 1.94 238 2.04
 157  0.906  0.875  0.742- 169 1.94 199 1.94 238 2.04
 158  0.750  0.750  0.690- 237 1.86 228 2.09 238 2.09
 159  0.750  0.750  0.782- 238 1.83 228 1.83
 160  0.250  0.125  0.264-   3 1.95   4 1.95  23 1.95  24 1.95   1 1.98   2 1.98
 161  0.000  0.000  0.264-   1 1.95  60 1.95  81 1.95 141 1.95   7 1.98
 162  0.000  0.125  0.382-   7 1.95  27 1.95   8 1.95  28 1.95   6 1.98  84 1.98
 163  0.250  0.000  0.382-   5 1.95   6 1.95  64 1.95  65 1.95   4 1.98  11 1.98
 164  0.250  0.125  0.500-  11 1.95  12 1.95  31 1.95  32 1.95   9 1.98  10 1.98
 165  0.000  0.000  0.500-   9 1.95  68 1.95  89 1.95 149 1.95   8 1.98  15 2.00
 166  0.500  0.125  0.615-  94 1.90 114 1.90  13 1.95  93 1.95 115 2.01  95 2.01
 167  0.250  0.000  0.622-  59 1.86  14 1.97  73 1.97  13 1.97  72 1.97  12 2.10
 168  0.250  0.125  0.744-  40 1.83  20 1.83  18 2.04  17 2.04  39 2.09  59 2.09
 169  0.000  1.000  0.731-  16 1.81  76 1.94  17 1.94 157 1.94  97 1.94
 170  0.250  0.375  0.264-  23 1.95  24 1.95  43 1.95  44 1.95  21 1.98  22 1.98
 171  0.000  0.250  0.264-   1 1.95  21 1.95  81 1.95 101 1.95  27 1.98
 172  0.000  0.375  0.382-  27 1.95  47 1.95  28 1.95  48 1.95  26 1.98 104 1.98
 173  0.250  0.250  0.382-   5 1.95   6 1.95  25 1.95  26 1.95  24 1.98  31 1.98
 174  0.250  0.375  0.500-  31 1.95  32 1.95  51 1.95  52 1.95  29 1.98  30 1.98
 175  0.000  0.250  0.500-   9 1.95  29 1.95  89 1.95 109 1.95  28 1.98  35 2.00
 176  0.500  0.375  0.615- 134 1.90 114 1.90  33 1.95 113 1.95 135 2.01 115 2.01
 177  0.250  0.250  0.622-  39 1.86  34 1.97  14 1.97  33 1.97  13 1.97  32 2.10
 178  0.250  0.375  0.744-  40 1.83  38 2.04  37 2.04  39 2.09  19 2.09
 179  0.000  0.250  0.731-  36 1.81  37 1.94 117 1.94  17 1.94  97 1.94
 180  0.250  0.625  0.264-  43 1.95  44 1.95  62 1.95  63 1.95  41 1.98  42 1.98
 181  0.000  0.500  0.264-  21 1.95  41 1.95 101 1.95 121 1.95  47 1.98
 182  0.000  0.625  0.382-  47 1.95  66 1.95  48 1.95  67 1.95  46 1.98 124 1.98
 183  0.250  0.500  0.382-  25 1.95  26 1.95  45 1.95  46 1.95  44 1.98  51 1.98
 184  0.250  0.625  0.500-  51 1.95  52 1.95  70 1.95  71 1.95  49 1.98  50 1.98
 185  0.000  0.500  0.500-  29 1.95  49 1.95 109 1.95 129 1.95  48 1.98  55 2.00
 186  0.500  0.625  0.615- 134 1.90 154 1.90  53 1.95 133 1.95 155 2.01 135 2.01
 187  0.250  0.500  0.622-  19 1.86  54 1.97  34 1.97  53 1.97  33 1.97  52 2.10
 188  0.250  0.625  0.744-  79 1.83  58 2.04  57 2.04  78 2.09  19 2.09
 189  0.000  0.500  0.731-  56 1.81  37 1.94  57 1.94 117 1.94 137 1.94
 190  0.250  0.875  0.264-   3 1.95   4 1.95  62 1.95  63 1.95  60 1.98  61 1.98
 191  0.000  0.750  0.264-  41 1.95  60 1.95 121 1.95 141 1.95  66 1.98
 192  0.000  0.875  0.382-   7 1.95  66 1.95   8 1.95  67 1.95  65 1.98 144 1.98
 193  0.250  0.750  0.382-  45 1.95  46 1.95  64 1.95  65 1.95  63 1.98  70 1.98
 194  0.250  0.875  0.500-  11 1.95  12 1.95  70 1.95  71 1.95  68 1.98  69 1.98
 195  0.000  0.750  0.500-  49 1.95  68 1.95 129 1.95 149 1.95  67 1.98  74 2.00
 196  0.500  0.875  0.615-  94 1.90 154 1.90  72 1.95 153 1.95  95 2.01 155 2.01
 197  0.250  0.750  0.622-  78 1.86  73 1.97  54 1.97  72 1.97  53 1.97  71 2.10
 198  0.250  0.875  0.744-  79 1.83  20 1.83  77 2.04  76 2.04  78 2.09  59 2.09
 199  0.000  0.750  0.731-  75 1.81  76 1.94 157 1.94  57 1.94 137 1.94
 200  0.750  0.125  0.264-  82 1.95  83 1.95 102 1.95 103 1.95  80 1.98  81 1.98
 201  0.500  0.000  0.264-   2 1.95  61 1.95  80 1.95 140 1.95  86 1.98
 202  0.500  0.125  0.382-  86 1.95 106 1.95  87 1.95 107 1.95   5 1.98  85 1.98
 203  0.750  0.000  0.382-  84 1.95  85 1.95 144 1.95 145 1.95  83 1.98  90 1.98
 204  0.750  0.125  0.500-  90 1.95  91 1.95 110 1.95 111 1.95  88 1.98  89 1.98
 205  0.500  0.000  0.500-  10 1.95  69 1.95  88 1.95 148 1.95  87 1.98  94 2.00
 206  1.000  0.125  0.615-  15 1.90  35 1.90  92 1.95  14 1.95  36 2.01  16 2.01
 207  0.750  0.000  0.622- 138 1.86  93 1.97 153 1.97  92 1.97 152 1.97  91 2.10
 208  0.750  0.125  0.744- 119 1.83  99 1.83  97 2.04  96 2.04 118 2.09 138 2.09
 209  0.500  1.000  0.731-  95 1.81 156 1.94  96 1.94  77 1.94  18 1.94
 210  0.750  0.375  0.264- 102 1.95 103 1.95 122 1.95 123 1.95 100 1.98 101 1.98
 211  0.500  0.250  0.264-   2 1.95  22 1.95  80 1.95 100 1.95 106 1.98
 212  0.500  0.375  0.382- 106 1.95 126 1.95 107 1.95 127 1.95  25 1.98 105 1.98
 213  0.750  0.250  0.382-  84 1.95  85 1.95 104 1.95 105 1.95 103 1.98 110 1.98
 214  0.750  0.375  0.500- 110 1.95 111 1.95 130 1.95 131 1.95 108 1.98 109 1.98
 215  0.500  0.250  0.500-  10 1.95  30 1.95  88 1.95 108 1.95 107 1.98 114 2.00
 216  1.000  0.375  0.615-  55 1.90  35 1.90 112 1.95  34 1.95  56 2.01  36 2.01
 217  0.750  0.250  0.622- 118 1.86 113 1.97  93 1.97 112 1.97  92 1.97 111 2.10
 218  0.750  0.375  0.744- 119 1.83 139 1.83 117 2.04 116 2.04 118 2.09  98 2.09
 219  0.500  0.250  0.731- 115 1.81 116 1.94  38 1.94  96 1.94  18 1.94
 220  0.750  0.625  0.264- 122 1.95 123 1.95 142 1.95 143 1.95 120 1.98 121 1.98
 221  0.500  0.500  0.264-  22 1.95  42 1.95 100 1.95 120 1.95 126 1.98
 222  0.500  0.625  0.382- 126 1.95 146 1.95 127 1.95 147 1.95  45 1.98 125 1.98
 223  0.750  0.500  0.382- 104 1.95 105 1.95 124 1.95 125 1.95 123 1.98 130 1.98
 224  0.750  0.625  0.500- 130 1.95 131 1.95 150 1.95 151 1.95 128 1.98 129 1.98
 225  0.500  0.500  0.500-  30 1.95  50 1.95 108 1.95 128 1.95 127 1.98 134 2.00
 226  1.000  0.625  0.615-  55 1.90  74 1.90 132 1.95  54 1.95  75 2.01  56 2.01
 227  0.750  0.500  0.622-  98 1.86 133 1.97 113 1.97 132 1.97 112 1.97 131 2.10
 228  0.750  0.625  0.744- 159 1.83 139 1.83 137 2.04 136 2.04 158 2.09  98 2.09
 229  0.500  0.500  0.731- 135 1.81 116 1.94 136 1.94  38 1.94  58 1.94
 230  0.750  0.875  0.264-  82 1.95  83 1.95 142 1.95 143 1.95 140 1.98 141 1.98
 231  0.500  0.750  0.264-  42 1.95  61 1.95 120 1.95 140 1.95 146 1.98
 232  0.500  0.875  0.382-  86 1.95 146 1.95  87 1.95 147 1.95  64 1.98 145 1.98
 233  0.750  0.750  0.382- 124 1.95 125 1.95 144 1.95 145 1.95 143 1.98 150 1.98
 234  0.750  0.875  0.500-  90 1.95  91 1.95 150 1.95 151 1.95 148 1.98 149 1.98
 235  0.500  0.750  0.500-  50 1.95  69 1.95 128 1.95 148 1.95 147 1.98 154 2.00
 236  1.000  0.875  0.615-  15 1.90  74 1.90 152 1.95  73 1.95  16 2.01  75 2.01
 237  0.750  0.750  0.622- 158 1.86 153 1.97 133 1.97 152 1.97 132 1.97 151 2.10
 238  0.750  0.875  0.744- 159 1.83  99 1.83 157 2.04 156 2.04 158 2.09 138 2.09
 239  0.500  0.750  0.731- 155 1.81 156 1.94  77 1.94 136 1.94  58 1.94


IMPORTANT INFORMATION: All symmetrisations will be switched off!
NOSYMM: (Re-)initialisation of all symmetry stuff for point group C_1.


----------------------------------------------------------------------------------------

                                     Primitive cell                                     

  volume of cell :    4249.7019

  direct lattice vectors                    reciprocal lattice vectors
    13.016074892  0.000000000  0.000000000     0.076828077  0.000000000  0.000000000
     0.000000000 11.844370774  0.000000000     0.000000000  0.084428292  0.000000000
     0.000000000  0.000000000 27.565535629     0.000000000  0.000000000  0.036277184

  length of vectors
    13.016074892 11.844370774 27.565535629     0.076828077  0.084428292  0.036277184

  position of ions in fractional coordinates (direct lattice)
     0.097732310  0.125000000  0.263810984
     0.402267690  0.125000000  0.263810984
     0.250000000  0.000000000  0.217663102
     0.250000000  0.000000000  0.309958865
     0.347732310  0.125000000  0.381857619
     0.152267690  0.125000000  0.381857619
     0.000000000  0.000000000  0.335709737
     0.000000000  0.000000000  0.428005500
     0.097732310  0.125000000  0.499904254
     0.402267690  0.125000000  0.499904254
     0.250000000  0.000000000  0.453756372
     0.250000000  0.000000000  0.546052135
     0.349960529  0.125000012  0.618492673
     0.150041709  0.125000020  0.618492870
     0.000000648  0.999999994  0.572350334
     0.000000726  0.000000031  0.664802302
     0.093635235  0.124999951  0.742015042
     0.406365714  0.124999959  0.742015123
     0.250000576  0.499999990  0.689888040
     0.250000236  0.000000085  0.782336898
     0.097732310  0.375000000  0.263810984
     0.402267690  0.375000000  0.263810984
     0.250000000  0.250000000  0.217663102
     0.250000000  0.250000000  0.309958865
     0.347732310  0.375000000  0.381857619
     0.152267690  0.375000000  0.381857619
     0.000000000  0.250000000  0.335709737
     0.000000000  0.250000000  0.428005500
     0.097732310  0.375000000  0.499904254
     0.402267690  0.375000000  0.499904254
     0.250000000  0.250000000  0.453756372
     0.250000000  0.250000000  0.546052135
     0.349960523  0.374999963  0.618492679
     0.150041713  0.374999976  0.618492877
     0.000000659  0.250000019  0.572350319
     0.000000741  0.249999963  0.664802267
     0.093635240  0.375000046  0.742015000
     0.406365665  0.375000065  0.742015075
     0.250000582  0.249999954  0.689887990
     0.250000207  0.249999917  0.782336799
     0.097732310  0.625000000  0.263810984
     0.402267690  0.625000000  0.263810984
     0.250000000  0.500000000  0.217663102
     0.250000000  0.500000000  0.309958865
     0.347732310  0.625000000  0.381857619
     0.152267690  0.625000000  0.381857619
     0.000000000  0.500000000  0.335709737
     0.000000000  0.500000000  0.428005500
     0.097732310  0.625000000  0.499904254
     0.402267690  0.625000000  0.499904254
     0.250000000  0.500000000  0.453756372
     0.250000000  0.500000000  0.546052135
     0.349960529  0.625000012  0.618492673
     0.150041709  0.625000020  0.618492870
     0.000000648  0.499999994  0.572350334
     0.000000726  0.500000031  0.664802302
     0.093635235  0.624999951  0.742015042
     0.406365714  0.624999959  0.742015123
     0.250000576  0.999999990  0.689888040
     0.097732310  0.875000000  0.263810984
     0.402267690  0.875000000  0.263810984
     0.250000000  0.750000000  0.217663102
     0.250000000  0.750000000  0.309958865
     0.347732310  0.875000000  0.381857619
     0.152267690  0.875000000  0.381857619
     0.000000000  0.750000000  0.335709737
     0.000000000  0.750000000  0.428005500
     0.097732310  0.875000000  0.499904254
     0.402267690  0.875000000  0.499904254
     0.250000000  0.750000000  0.453756372
     0.250000000  0.750000000  0.546052135
     0.349960523  0.874999963  0.618492679
     0.150041713  0.874999976  0.618492877
     0.000000659  0.750000019  0.572350319
     0.000000741  0.749999963  0.664802267
     0.093635240  0.875000046  0.742015000
     0.406365665  0.875000065  0.742015075
     0.250000582  0.749999954  0.689887990
     0.250000207  0.749999917  0.782336799
     0.597732310  0.125000000  0.263810984
     0.902267690  0.125000000  0.263810984
     0.750000000  0.000000000  0.217663102
     0.750000000  0.000000000  0.309958865
     0.847732310  0.125000000  0.381857619
     0.652267690  0.125000000  0.381857619
     0.500000000  0.000000000  0.335709737
     0.500000000  0.000000000  0.428005500
     0.597732310  0.125000000  0.499904254
     0.902267690  0.125000000  0.499904254
     0.750000000  0.000000000  0.453756372
     0.750000000  0.000000000  0.546052135
     0.849960529  0.125000012  0.618492673
     0.650041709  0.125000020  0.618492870
     0.500000648  0.999999994  0.572350334
     0.500000726  0.000000031  0.664802302
     0.593635235  0.124999951  0.742015042
     0.906365714  0.124999959  0.742015123
     0.750000576  0.499999990  0.689888040
     0.750000236  0.000000085  0.782336898
     0.597732310  0.375000000  0.263810984
     0.902267690  0.375000000  0.263810984
     0.750000000  0.250000000  0.217663102
     0.750000000  0.250000000  0.309958865
     0.847732310  0.375000000  0.381857619
     0.652267690  0.375000000  0.381857619
     0.500000000  0.250000000  0.335709737
     0.500000000  0.250000000  0.428005500
     0.597732310  0.375000000  0.499904254
     0.902267690  0.375000000  0.499904254
     0.750000000  0.250000000  0.453756372
     0.750000000  0.250000000  0.546052135
     0.849960523  0.374999963  0.618492679
     0.650041713  0.374999976  0.618492877
     0.500000659  0.250000019  0.572350319
     0.500000741  0.249999963  0.664802267
     0.593635240  0.375000046  0.742015000
     0.906365665  0.375000065  0.742015075
     0.750000582  0.249999954  0.689887990
     0.750000207  0.249999917  0.782336799
     0.597732310  0.625000000  0.263810984
     0.902267690  0.625000000  0.263810984
     0.750000000  0.500000000  0.217663102
     0.750000000  0.500000000  0.309958865
     0.847732310  0.625000000  0.381857619
     0.652267690  0.625000000  0.381857619
     0.500000000  0.500000000  0.335709737
     0.500000000  0.500000000  0.428005500
     0.597732310  0.625000000  0.499904254
     0.902267690  0.625000000  0.499904254
     0.750000000  0.500000000  0.453756372
     0.750000000  0.500000000  0.546052135
     0.849960529  0.625000012  0.618492673
     0.650041709  0.625000020  0.618492870
     0.500000648  0.499999994  0.572350334
     0.500000726  0.500000031  0.664802302
     0.593635235  0.624999951  0.742015042
     0.906365714  0.624999959  0.742015123
     0.750000576  0.999999990  0.689888040
     0.750000236  0.500000085  0.782336898
     0.597732310  0.875000000  0.263810984
     0.902267690  0.875000000  0.263810984
     0.750000000  0.750000000  0.217663102
     0.750000000  0.750000000  0.309958865
     0.847732310  0.875000000  0.381857619
     0.652267690  0.875000000  0.381857619
     0.500000000  0.750000000  0.335709737
     0.500000000  0.750000000  0.428005500
     0.597732310  0.875000000  0.499904254
     0.902267690  0.875000000  0.499904254
     0.750000000  0.750000000  0.453756372
     0.750000000  0.750000000  0.546052135
     0.849960523  0.874999963  0.618492679
     0.650041713  0.874999976  0.618492877
     0.500000659  0.750000019  0.572350319
     0.500000741  0.749999963  0.664802267
     0.593635240  0.875000046  0.742015000
     0.906365665  0.875000065  0.742015075
     0.750000582  0.749999954  0.689887990
     0.750000207  0.749999917  0.782336799
     0.250000000  0.125000000  0.263810984
     0.000000000  0.000000000  0.263810984
     0.000000000  0.125000000  0.381857619
     0.250000000  0.000000000  0.381857619
     0.250000000  0.125000000  0.499904254
     0.000000000  0.000000000  0.499904254
     0.499995050  0.124999964  0.615465046
     0.249996225  0.000000025  0.622249941
     0.250000648  0.125000484  0.743559282
     0.000000508  0.999999990  0.730563493
     0.250000000  0.375000000  0.263810984
     0.000000000  0.250000000  0.263810984
     0.000000000  0.375000000  0.381857619
     0.250000000  0.250000000  0.381857619
     0.250000000  0.375000000  0.499904254
     0.000000000  0.250000000  0.499904254
     0.499995035  0.375000046  0.615465062
     0.249996236  0.250000041  0.622250010
     0.250000660  0.374999548  0.743559451
     0.000000464  0.250000042  0.730563481
     0.250000000  0.625000000  0.263810984
     0.000000000  0.500000000  0.263810984
     0.000000000  0.625000000  0.381857619
     0.250000000  0.500000000  0.381857619
     0.250000000  0.625000000  0.499904254
     0.000000000  0.500000000  0.499904254
     0.499995050  0.624999964  0.615465046
     0.249996225  0.500000025  0.622249941
     0.250000648  0.625000484  0.743559282
     0.000000508  0.499999990  0.730563493
     0.250000000  0.875000000  0.263810984
     0.000000000  0.750000000  0.263810984
     0.000000000  0.875000000  0.381857619
     0.250000000  0.750000000  0.381857619
     0.250000000  0.875000000  0.499904254
     0.000000000  0.750000000  0.499904254
     0.499995035  0.875000046  0.615465062
     0.249996236  0.750000041  0.622250010
     0.250000660  0.874999548  0.743559451
     0.000000464  0.750000042  0.730563481
     0.750000000  0.125000000  0.263810984
     0.500000000  0.000000000  0.263810984
     0.500000000  0.125000000  0.381857619
     0.750000000  0.000000000  0.381857619
     0.750000000  0.125000000  0.499904254
     0.500000000  0.000000000  0.499904254
     0.999995050  0.124999964  0.615465046
     0.749996225  0.000000025  0.622249941
     0.750000648  0.125000484  0.743559282
     0.500000508  0.999999990  0.730563493
     0.750000000  0.375000000  0.263810984
     0.500000000  0.250000000  0.263810984
     0.500000000  0.375000000  0.381857619
     0.750000000  0.250000000  0.381857619
     0.750000000  0.375000000  0.499904254
     0.500000000  0.250000000  0.499904254
     0.999995035  0.375000046  0.615465062
     0.749996236  0.250000041  0.622250010
     0.750000660  0.374999548  0.743559451
     0.500000464  0.250000042  0.730563481
     0.750000000  0.625000000  0.263810984
     0.500000000  0.500000000  0.263810984
     0.500000000  0.625000000  0.381857619
     0.750000000  0.500000000  0.381857619
     0.750000000  0.625000000  0.499904254
     0.500000000  0.500000000  0.499904254
     0.999995050  0.624999964  0.615465046
     0.749996225  0.500000025  0.622249941
     0.750000648  0.625000484  0.743559282
     0.500000508  0.499999990  0.730563493
     0.750000000  0.875000000  0.263810984
     0.500000000  0.750000000  0.263810984
     0.500000000  0.875000000  0.381857619
     0.750000000  0.750000000  0.381857619
     0.750000000  0.875000000  0.499904254
     0.500000000  0.750000000  0.499904254
     0.999995035  0.875000046  0.615465062
     0.749996236  0.750000041  0.622250010
     0.750000660  0.874999548  0.743559451
     0.500000464  0.750000042  0.730563481

  ion indices of the primitive-cell ions
   primitive index   ion index
                 1           1
                 2           2
                 3           3
                 4           4
                 5           5
                 6           6
                 7           7
                 8           8
                 9           9
                10          10
                11          11
                12          12
                13          13
                14          14
                15          15
                16          16
                17          17
                18          18
                19          19
                20          20
                21          21
                22          22
                23          23
                24          24
                25          25
                26          26
                27          27
                28          28
                29          29
                30          30
                31          31
                32          32
                33          33
                34          34
                35          35
                36          36
                37          37
                38          38
                39          39
                40          40
                41          41
                42          42
                43          43
                44          44
                45          45
                46          46
                47          47
                48          48
                49          49
                50          50
                51          51
                52          52
                53          53
                54          54
                55          55
                56          56
                57          57
                58          58
                59          59
                60          60
                61          61
                62          62
                63          63
                64          64
                65          65
                66          66
                67          67
                68          68
                69          69
                70          70
                71          71
                72          72
                73          73
                74          74
                75          75
                76          76
                77          77
                78          78
                79          79
                80          80
                81          81
                82          82
                83          83
                84          84
                85          85
                86          86
                87          87
                88          88
                89          89
                90          90
                91          91
                92          92
                93          93
                94          94
                95          95
                96          96
                97          97
                98          98
                99          99
               100         100
               101         101
               102         102
               103         103
               104         104
               105         105
               106         106
               107         107
               108         108
               109         109
               110         110
               111         111
               112         112
               113         113
               114         114
               115         115
               116         116
               117         117
               118         118
               119         119
               120         120
               121         121
               122         122
               123         123
               124         124
               125         125
               126         126
               127         127
               128         128
               129         129
               130         130
               131         131
               132         132
               133         133
               134         134
               135         135
               136         136
               137         137
               138         138
               139         139
               140         140
               141         141
               142         142
               143         143
               144         144
               145         145
               146         146
               147         147
               148         148
               149         149
               150         150
               151         151
               152         152
               153         153
               154         154
               155         155
               156         156
               157         157
               158         158
               159         159
               160         160
               161         161
               162         162
               163         163
               164         164
               165         165
               166         166
               167         167
               168         168
               169         169
               170         170
               171         171
               172         172
               173         173
               174         174
               175         175
               176         176
               177         177
               178         178
               179         179
               180         180
               181         181
               182         182
               183         183
               184         184
               185         185
               186         186
               187         187
               188         188
               189         189
               190         190
               191         191
               192         192
               193         193
               194         194
               195         195
               196         196
               197         197
               198         198
               199         199
               200         200
               201         201
               202         202
               203         203
               204         204
               205         205
               206         206
               207         207
               208         208
               209         209
               210         210
               211         211
               212         212
               213         213
               214         214
               215         215
               216         216
               217         217
               218         218
               219         219
               220         220
               221         221
               222         222
               223         223
               224         224
               225         225
               226         226
               227         227
               228         228
               229         229
               230         230
               231         231
               232         232
               233         233
               234         234
               235         235
               236         236
               237         237
               238         238
               239         239

----------------------------------------------------------------------------------------



 KPOINTS: pymatgen v2020.8.13 with grid density = 

Automatic generation of k-mesh.
 Grid dimensions read from file:
 generate k-points for:    2    2    1

 Generating k-lattice:

  Cartesian coordinates                     Fractional coordinates (reciprocal lattice)
     0.038414038  0.000000000  0.000000000     0.500000000  0.000000000  0.000000000
     0.000000000  0.042214146  0.000000000     0.000000000  0.500000000  0.000000000
     0.000000000  0.000000000  0.036277184     0.000000000  0.000000000  1.000000000

  Length of vectors
     0.038414038  0.042214146  0.036277184

  Shift w.r.t. Gamma in fractional coordinates (k-lattice)
     0.000000000  0.000000000  0.000000000

 
 Subroutine IBZKPT returns following result:
 ===========================================
 
 Found      4 irreducible k-points:
 
 Following reciprocal coordinates:
            Coordinates               Weight
  0.000000  0.000000  0.000000      1.000000
  0.500000  0.000000  0.000000      1.000000
  0.000000  0.500000  0.000000      1.000000
  0.500000  0.500000  0.000000      1.000000
 
 Following cartesian coordinates:
            Coordinates               Weight
  0.000000  0.000000  0.000000      1.000000
  0.038414  0.000000  0.000000      1.000000
  0.000000  0.042214  0.000000      1.000000
  0.038414  0.042214  0.000000      1.000000
 
 
 Subroutine IBZKPT_HF returns following result:
 ==============================================
 
 Found      4 k-points in 1st BZ
 the following      4 k-points will be used (e.g. in the exchange kernel)
 Following reciprocal coordinates:   # in IRBZ
  0.000000  0.000000  0.000000    0.25000000   1 t-inv F
  0.500000  0.000000  0.000000    0.25000000   2 t-inv F
  0.000000  0.500000  0.000000    0.25000000   3 t-inv F
  0.500000  0.500000  0.000000    0.25000000   4 t-inv F


--------------------------------------------------------------------------------------------------------




 Dimension of arrays:
   k-points           NKPTS =      4   k-points in BZ     NKDIM =      4   number of bands    NBANDS=   1152
   number of dos      NEDOS =    301   number of ions     NIONS =    239
   non local maximal  LDIM  =      6   non local SUM 2l+1 LMDIM =     18
   total plane-waves  NPLWV = 806400
   max r-space proj   IRMAX =   1685   max aug-charges    IRDMAX=   7566
   dimension x,y,z NGX =    72 NGY =   70 NGZ =  160
   dimension x,y,z NGXF=   144 NGYF=  140 NGZF=  320
   support grid    NGXF=   144 NGYF=  140 NGZF=  320
   ions per type =             159  80
   NGX,Y,Z   is equivalent  to a cutoff of   9.20,  9.83,  9.65 a.u.
   NGXF,Y,Z  is equivalent  to a cutoff of  18.39, 19.65, 19.30 a.u.

 SYSTEM =  TiO2-rutile                             
 POSCAR =   O Ti                                   

 Startparameter for this run:
   NWRITE =      2    write-flag & timer
   PREC   = normal    normal or accurate (medium, high low for compatibility)
   ISTART =      1    job   : 0-new  1-cont  2-samecut
   ICHARG =      0    charge: 1-file 2-atom 10-const
   ISPIN  =      1    spin polarized calculation?
   LNONCOLLINEAR =      F non collinear calculations
   LSORBIT =      F    spin-orbit coupling
   INIWAV =      1    electr: 0-lowe 1-rand  2-diag
   LASPH  =      T    aspherical Exc in radial PAW
   METAGGA=      F    non-selfconsistent MetaGGA calc.

 Electronic Relaxation 1
   ENCUT  =  500.0 eV  36.75 Ry    6.06 a.u.  23.73 21.60 50.26*2*pi/ulx,y,z
   ENINI  =  500.0     initial cutoff
   ENAUG  =  605.4 eV  augmentation charge cutoff
   NELM   =     18;   NELMIN=  2; NELMDL=  0     # of ELM steps 
   EDIFF  = 0.1E-04   stopping-criterion for ELM
   LREAL  =      T    real-space projection
   NLSPLINE    = F    spline interpolate recip. space projectors
   LCOMPAT=      F    compatible to vasp.4.4
   GGA_COMPAT  = T    GGA compatible to vasp.4.4-vasp.4.6
   LMAXPAW     = -100 max onsite density
   LMAXMIX     =    2 max onsite mixed and CHGCAR
   VOSKOWN=      0    Vosko Wilk Nusair interpolation
   ROPT   =   -0.00050  -0.00050
 Ionic relaxation
   EDIFFG = -.1E-01   stopping-criterion for IOM
   NSW    =      0    number of steps for IOM
   NBLOCK =      1;   KBLOCK =      1    inner block; outer block 
   IBRION =     -1    ionic relax: 0-MD 1-quasi-New 2-CG
   NFREE  =      0    steps in history (QN), initial steepest desc. (CG)
   ISIF   =      0    stress and relaxation
   IWAVPR =     10    prediction:  0-non 1-charg 2-wave 3-comb
   ISYM   =      0    0-nonsym 1-usesym 2-fastsym
   LCORR  =      T    Harris-Foulkes like correction to forces

   POTIM  = 0.5000    time-step for ionic-motion
   TEIN   =    0.0    initial temperature
   TEBEG  =    0.0;   TEEND  =   0.0 temperature during run
   SMASS  =  -3.00    Nose mass-parameter (am)
   estimated Nose-frequenzy (Omega)   =  0.10E-29 period in steps = 0.13E+47 mass=  -0.387E-26a.u.
   SCALEE = 1.0000    scale energy and forces
   NPACO  =    256;   APACO  = 16.0  distance and # of slots for P.C.
   PSTRESS=    0.0 pullay stress

  Mass of Ions in am
   POMASS =  16.00 47.88
  Ionic Valenz
   ZVAL   =   6.00 12.00
  Atomic Wigner-Seitz radii
   RWIGS  =  -1.00 -1.00
  virtual crystal weights 
   VCA    =   1.00  1.00
   NELECT =    1914.0000    total number of electrons
   NUPDOWN=      -1.0000    fix difference up-down

 DOS related values:
   EMIN   =  10.00;   EMAX   =-10.00  energy-range for DOS
   EFERMI =   0.00
   ISMEAR =     0;   SIGMA  =   0.05  broadening in eV -4-tet -1-fermi 0-gaus

 Electronic relaxation 2 (details)
   IALGO  =     58    algorithm
   LDIAG  =      T    sub-space diagonalisation (order eigenvalues)
   LSUBROT=      F    optimize rotation matrix (better conditioning)
   TURBO    =      0    0=normal 1=particle mesh
   IRESTART =      0    0=no restart 2=restart with 2 vectors
   NREBOOT  =      0    no. of reboots
   NMIN     =      0    reboot dimension
   EREF     =   0.00    reference energy to select bands
   IMIX   =      4    mixing-type and parameters
     AMIX     =   0.40;   BMIX     =  1.00
     AMIX_MAG =   1.60;   BMIX_MAG =  1.00
     AMIN     =   0.10
     WC   =   100.;   INIMIX=   1;  MIXPRE=   1;  MAXMIX= -45

 Intra band minimization:
   WEIMIN = 0.0000     energy-eigenvalue tresh-hold
   EBREAK =  0.22E-08  absolut break condition
   DEPER  =   0.30     relativ break condition  

   TIME   =   0.40     timestep for ELM

  volume/ion in A,a.u.               =      17.78       119.99
  Fermi-wavevector in a.u.,A,eV,Ry     =   1.254881  2.371382 21.425463  1.574727
  Thomas-Fermi vector in A             =   2.388665

 Write flags
   LWAVE        =      T    write WAVECAR
   LDOWNSAMPLE  =      F    k-point downsampling of WAVECAR
   LCHARG       =      F    write CHGCAR
   LVTOT        =      F    write LOCPOT, total local potential
   LVHAR        =      F    write LOCPOT, Hartree potential only
   LELF         =      F    write electronic localiz. function (ELF)
   LORBIT       =     11    0 simple, 1 ext, 2 COOP (PROOUT), +10 PAW based schemes


 Dipole corrections
   LMONO  =      F    monopole corrections only (constant potential shift)
   LDIPOL =      F    correct potential (dipole corrections)
   IDIPOL =      0    1-x, 2-y, 3-z, 4-all directions 
   EPSILON=  1.0000000 bulk dielectric constant

 Exchange correlation treatment:
   GGA     =    --    GGA type
   LEXCH   =     8    internal setting for exchange type
   VOSKOWN=      0    Vosko Wilk Nusair interpolation
   EXXOEP  =     0    0=HF, 1=EXX-LHF (local Hartree Fock) 2=EXX OEP
   LHFCALC =     T    Hartree Fock is set to
   LSYMGRAD=     F    symmetrize gradient (conserves proper symmetry)
   PRECFOCK=normal    Normal, Fast or Accurate (Low or Medium for compatibility)
   LRHFCALC=     F    long range Hartree Fock
   LRSCOR  =     F    long range correlation only (use DFT for short range part)
   LTHOMAS =     F    Thomas Fermi screening in HF
   LMODELHF=     F    short range full HF, long range fraction AEXX
   LFOCKACE=     T    use Adeptively-Compressed-Exchange operator
   ENCUT4O =  -1.0   cutoff for four orbital integrals eV
   LMAXFOCK=     4    L truncation for augmentation on plane wave grid
   LMAXFOCKAE=  -1    L truncation for all-electron charge restoration on plane wave grid
   NMAXFOCKAE=   1    number of basis functions for all-electron charge restoration
   LFOCKAEDFT=     F  apply the AE augmentation even for DFT
   NKREDX  =     1    reduce k-point grid by
   NKREDY  =     1    reduce k-point grid by
   NKREDZ  =     1    reduce k-point grid by
   SHIFTRED=     F    shift reduced grid of Gamma
   HFKIDENT=     F    idential grid for each k-point
   ODDONLY =     F    use only odd q-grid points
   EVENONLY=     F    use only even q-grid points
   HFALPHA =   -1.0000 decay constant for conv. correction
   MCALPHA =    0.0000 extent of test-charge in conv. correction in multipole expansion
   AEXX    =    0.2500 exact exchange contribution
   HFSCREEN=    0.0000 screening length (either q_TF or 0.3 A-1)
   HFSCREENC=   0.0000 screening length for correlation (either q_TF or 0.3 A-1)
   HFRCUT  =    0.0000 spherical cutoff for potential kernel
   ALDAX   =    0.7500 LDA exchange part
   AGGAX   =    0.7500 GGA exchange part
   ALDAC   =    1.0000 LDA correlation
   AGGAC   =    1.0000 GGA correlation
   ENCUTFOCK=  -1.0 apply spherical cutoff to Coloumb kernel
   NBANDSGWLOW=     1    first orbital included in HF term
   NBLOCK_FOCK=    64    blocking factor in FOCK_ACC
 Linear response parameters
   LEPSILON=     F    determine dielectric tensor
   LRPA    =     F    only Hartree local field effects (RPA)
   LNABLA  =     F    use nabla operator in PAW spheres
   LVEL    =     F    velocity operator in full k-point grid
   LINTERFAST=   F  fast interpolation
   KINTER  =     0    interpolate to denser k-point grid
   CSHIFT  =0.1000    complex shift for real part using Kramers Kronig
   OMEGAMAX=  -1.0    maximum frequency
   DEG_THRESHOLD= 0.2000000E-02 threshold for treating states as degnerate
   RTIME   =   -0.100 relaxation time in fs
  (WPLASMAI=    0.000 imaginary part of plasma frequency in eV, 0.658/RTIME)
   DFIELD  = 0.0000000 0.0000000 0.0000000 field for delta impulse in time

 Orbital magnetization related:
   ORBITALMAG=     F  switch on orbital magnetization
   LCHIMAG   =     F  perturbation theory with respect to B field
   DQ        =  0.001000  dq finite difference perturbation B field
   LLRAUG    =     F  two centre corrections for induced B field



--------------------------------------------------------------------------------------------------------


 Static calculation
 charge density and potential will be updated during run
 non-spin polarized calculation
 Conjugate gradient for all bands (Freysoldt, et al. PRB 79, 241103 (2009))
 preconditioned conjugated gradient                                        
 perform sub-space diagonalisation
    before iterative eigenvector-optimisation
 modified Broyden-mixing scheme, WC =      100.0
 initial mixing is a Kerker type mixing with AMIX =  0.4000 and BMIX =      1.0000
 Hartree-type preconditioning will be used
 using additional bands          195
 real space projection scheme for non local part
 use partial core corrections
 no Harris-corrections to forces 
 use gradient corrections 
 use of overlap-Matrix (Vanderbilt PP)
 Gauss-broadening in eV      SIGMA  =   0.05


--------------------------------------------------------------------------------------------------------


  energy-cutoff  :      500.00
  volume of cell :     4249.70
      direct lattice vectors                 reciprocal lattice vectors
    13.016074892  0.000000000  0.000000000     0.076828077  0.000000000  0.000000000
     0.000000000 11.844370774  0.000000000     0.000000000  0.084428292  0.000000000
     0.000000000  0.000000000 27.565535629     0.000000000  0.000000000  0.036277184

  length of vectors
    13.016074892 11.844370774 27.565535629     0.076828077  0.084428292  0.036277184



 old parameters found on file WAVECAR:
  energy-cutoff  :      500.00
  volume of cell :     4249.70
      direct lattice vectors                 reciprocal lattice vectors
    13.016074892  0.000000000  0.000000000     0.076828077  0.000000000  0.000000000
     0.000000000 11.844370774  0.000000000     0.000000000  0.084428292  0.000000000
     0.000000000  0.000000000 27.565535629     0.000000000  0.000000000  0.036277184

  length of vectors


 k-points in units of 2pi/SCALE and weight: pymatgen v2020.8.13 with grid density = 
   0.00000000  0.00000000  0.00000000       0.250
   0.03841404  0.00000000  0.00000000       0.250
   0.00000000  0.04221415  0.00000000       0.250
   0.03841404  0.04221415  0.00000000       0.250

 k-points in reciprocal lattice and weights: pymatgen v2020.8.13 with grid density = 
   0.00000000  0.00000000  0.00000000       0.250
   0.50000000  0.00000000  0.00000000       0.250
   0.00000000  0.50000000  0.00000000       0.250
   0.50000000  0.50000000  0.00000000       0.250

 position of ions in fractional coordinates (direct lattice) 
   0.09773231  0.12500000  0.26381098
   0.40226769  0.12500000  0.26381098
   0.25000000  0.00000000  0.21766310
   0.25000000  0.00000000  0.30995886
   0.34773231  0.12500000  0.38185762
   0.15226769  0.12500000  0.38185762
   0.00000000  0.00000000  0.33570974
   0.00000000  0.00000000  0.42800550
   0.09773231  0.12500000  0.49990425
   0.40226769  0.12500000  0.49990425
   0.25000000  0.00000000  0.45375637
   0.25000000  0.00000000  0.54605213
   0.34996053  0.12500001  0.61849267
   0.15004171  0.12500002  0.61849287
   0.00000065  0.99999999  0.57235033
   0.00000073  0.00000003  0.66480230
   0.09363523  0.12499995  0.74201504
   0.40636571  0.12499996  0.74201512
   0.25000058  0.49999999  0.68988804
   0.25000024  0.00000008  0.78233690
   0.09773231  0.37500000  0.26381098
   0.40226769  0.37500000  0.26381098
   0.25000000  0.25000000  0.21766310
   0.25000000  0.25000000  0.30995886
   0.34773231  0.37500000  0.38185762
   0.15226769  0.37500000  0.38185762
   0.00000000  0.25000000  0.33570974
   0.00000000  0.25000000  0.42800550
   0.09773231  0.37500000  0.49990425
   0.40226769  0.37500000  0.49990425
   0.25000000  0.25000000  0.45375637
   0.25000000  0.25000000  0.54605213
   0.34996052  0.37499996  0.61849268
   0.15004171  0.37499998  0.61849288
   0.00000066  0.25000002  0.57235032
   0.00000074  0.24999996  0.66480227
   0.09363524  0.37500005  0.74201500
   0.40636566  0.37500006  0.74201507
   0.25000058  0.24999995  0.68988799
   0.25000021  0.24999992  0.78233680
   0.09773231  0.62500000  0.26381098
   0.40226769  0.62500000  0.26381098
   0.25000000  0.50000000  0.21766310
   0.25000000  0.50000000  0.30995886
   0.34773231  0.62500000  0.38185762
   0.15226769  0.62500000  0.38185762
   0.00000000  0.50000000  0.33570974
   0.00000000  0.50000000  0.42800550
   0.09773231  0.62500000  0.49990425
   0.40226769  0.62500000  0.49990425
   0.25000000  0.50000000  0.45375637
   0.25000000  0.50000000  0.54605213
   0.34996053  0.62500001  0.61849267
   0.15004171  0.62500002  0.61849287
   0.00000065  0.49999999  0.57235033
   0.00000073  0.50000003  0.66480230
   0.09363523  0.62499995  0.74201504
   0.40636571  0.62499996  0.74201512
   0.25000058  0.99999999  0.68988804
   0.09773231  0.87500000  0.26381098
   0.40226769  0.87500000  0.26381098
   0.25000000  0.75000000  0.21766310
   0.25000000  0.75000000  0.30995886
   0.34773231  0.87500000  0.38185762
   0.15226769  0.87500000  0.38185762
   0.00000000  0.75000000  0.33570974
   0.00000000  0.75000000  0.42800550
   0.09773231  0.87500000  0.49990425
   0.40226769  0.87500000  0.49990425
   0.25000000  0.75000000  0.45375637
   0.25000000  0.75000000  0.54605213
   0.34996052  0.87499996  0.61849268
   0.15004171  0.87499998  0.61849288
   0.00000066  0.75000002  0.57235032
   0.00000074  0.74999996  0.66480227
   0.09363524  0.87500005  0.74201500
   0.40636566  0.87500006  0.74201507
   0.25000058  0.74999995  0.68988799
   0.25000021  0.74999992  0.78233680
   0.59773231  0.12500000  0.26381098
   0.90226769  0.12500000  0.26381098
   0.75000000  0.00000000  0.21766310
   0.75000000  0.00000000  0.30995886
   0.84773231  0.12500000  0.38185762
   0.65226769  0.12500000  0.38185762
   0.50000000  0.00000000  0.33570974
   0.50000000  0.00000000  0.42800550
   0.59773231  0.12500000  0.49990425
   0.90226769  0.12500000  0.49990425
   0.75000000  0.00000000  0.45375637
   0.75000000  0.00000000  0.54605213
   0.84996053  0.12500001  0.61849267
   0.65004171  0.12500002  0.61849287
   0.50000065  0.99999999  0.57235033
   0.50000073  0.00000003  0.66480230
   0.59363523  0.12499995  0.74201504
   0.90636571  0.12499996  0.74201512
   0.75000058  0.49999999  0.68988804
   0.75000024  0.00000008  0.78233690
   0.59773231  0.37500000  0.26381098
   0.90226769  0.37500000  0.26381098
   0.75000000  0.25000000  0.21766310
   0.75000000  0.25000000  0.30995886
   0.84773231  0.37500000  0.38185762
   0.65226769  0.37500000  0.38185762
   0.50000000  0.25000000  0.33570974
   0.50000000  0.25000000  0.42800550
   0.59773231  0.37500000  0.49990425
   0.90226769  0.37500000  0.49990425
   0.75000000  0.25000000  0.45375637
   0.75000000  0.25000000  0.54605213
   0.84996052  0.37499996  0.61849268
   0.65004171  0.37499998  0.61849288
   0.50000066  0.25000002  0.57235032
   0.50000074  0.24999996  0.66480227
   0.59363524  0.37500005  0.74201500
   0.90636566  0.37500006  0.74201507
   0.75000058  0.24999995  0.68988799
   0.75000021  0.24999992  0.78233680
   0.59773231  0.62500000  0.26381098
   0.90226769  0.62500000  0.26381098
   0.75000000  0.50000000  0.21766310
   0.75000000  0.50000000  0.30995886
   0.84773231  0.62500000  0.38185762
   0.65226769  0.62500000  0.38185762
   0.50000000  0.50000000  0.33570974
   0.50000000  0.50000000  0.42800550
   0.59773231  0.62500000  0.49990425
   0.90226769  0.62500000  0.49990425
   0.75000000  0.50000000  0.45375637
   0.75000000  0.50000000  0.54605213
   0.84996053  0.62500001  0.61849267
   0.65004171  0.62500002  0.61849287
   0.50000065  0.49999999  0.57235033
   0.50000073  0.50000003  0.66480230
   0.59363523  0.62499995  0.74201504
   0.90636571  0.62499996  0.74201512
   0.75000058  0.99999999  0.68988804
   0.75000024  0.50000008  0.78233690
   0.59773231  0.87500000  0.26381098
   0.90226769  0.87500000  0.26381098
   0.75000000  0.75000000  0.21766310
   0.75000000  0.75000000  0.30995886
   0.84773231  0.87500000  0.38185762
   0.65226769  0.87500000  0.38185762
   0.50000000  0.75000000  0.33570974
   0.50000000  0.75000000  0.42800550
   0.59773231  0.87500000  0.49990425
   0.90226769  0.87500000  0.49990425
   0.75000000  0.75000000  0.45375637
   0.75000000  0.75000000  0.54605213
   0.84996052  0.87499996  0.61849268
   0.65004171  0.87499998  0.61849288
   0.50000066  0.75000002  0.57235032
   0.50000074  0.74999996  0.66480227
   0.59363524  0.87500005  0.74201500
   0.90636566  0.87500006  0.74201507
   0.75000058  0.74999995  0.68988799
   0.75000021  0.74999992  0.78233680
   0.25000000  0.12500000  0.26381098
   0.00000000  0.00000000  0.26381098
   0.00000000  0.12500000  0.38185762
   0.25000000  0.00000000  0.38185762
   0.25000000  0.12500000  0.49990425
   0.00000000  0.00000000  0.49990425
   0.49999505  0.12499996  0.61546505
   0.24999623  0.00000002  0.62224994
   0.25000065  0.12500048  0.74355928
   0.00000051  0.99999999  0.73056349
   0.25000000  0.37500000  0.26381098
   0.00000000  0.25000000  0.26381098
   0.00000000  0.37500000  0.38185762
   0.25000000  0.25000000  0.38185762
   0.25000000  0.37500000  0.49990425
   0.00000000  0.25000000  0.49990425
   0.49999504  0.37500005  0.61546506
   0.24999624  0.25000004  0.62225001
   0.25000066  0.37499955  0.74355945
   0.00000046  0.25000004  0.73056348
   0.25000000  0.62500000  0.26381098
   0.00000000  0.50000000  0.26381098
   0.00000000  0.62500000  0.38185762
   0.25000000  0.50000000  0.38185762
   0.25000000  0.62500000  0.49990425
   0.00000000  0.50000000  0.49990425
   0.49999505  0.62499996  0.61546505
   0.24999623  0.50000002  0.62224994
   0.25000065  0.62500048  0.74355928
   0.00000051  0.49999999  0.73056349
   0.25000000  0.87500000  0.26381098
   0.00000000  0.75000000  0.26381098
   0.00000000  0.87500000  0.38185762
   0.25000000  0.75000000  0.38185762
   0.25000000  0.87500000  0.49990425
   0.00000000  0.75000000  0.49990425
   0.49999504  0.87500005  0.61546506
   0.24999624  0.75000004  0.62225001
   0.25000066  0.87499955  0.74355945
   0.00000046  0.75000004  0.73056348
   0.75000000  0.12500000  0.26381098
   0.50000000  0.00000000  0.26381098
   0.50000000  0.12500000  0.38185762
   0.75000000  0.00000000  0.38185762
   0.75000000  0.12500000  0.49990425
   0.50000000  0.00000000  0.49990425
   0.99999505  0.12499996  0.61546505
   0.74999623  0.00000002  0.62224994
   0.75000065  0.12500048  0.74355928
   0.50000051  0.99999999  0.73056349
   0.75000000  0.37500000  0.26381098
   0.50000000  0.25000000  0.26381098
   0.50000000  0.37500000  0.38185762
   0.75000000  0.25000000  0.38185762
   0.75000000  0.37500000  0.49990425
   0.50000000  0.25000000  0.49990425
   0.99999504  0.37500005  0.61546506
   0.74999624  0.25000004  0.62225001
   0.75000066  0.37499955  0.74355945
   0.50000046  0.25000004  0.73056348
   0.75000000  0.62500000  0.26381098
   0.50000000  0.50000000  0.26381098
   0.50000000  0.62500000  0.38185762
   0.75000000  0.50000000  0.38185762
   0.75000000  0.62500000  0.49990425
   0.50000000  0.50000000  0.49990425
   0.99999505  0.62499996  0.61546505
   0.74999623  0.50000002  0.62224994
   0.75000065  0.62500048  0.74355928
   0.50000051  0.49999999  0.73056349
   0.75000000  0.87500000  0.26381098
   0.50000000  0.75000000  0.26381098
   0.50000000  0.87500000  0.38185762
   0.75000000  0.75000000  0.38185762
   0.75000000  0.87500000  0.49990425
   0.50000000  0.75000000  0.49990425
   0.99999504  0.87500005  0.61546506
   0.74999624  0.75000004  0.62225001
   0.75000066  0.87499955  0.74355945
   0.50000046  0.75000004  0.73056348

 position of ions in cartesian coordinates  (Angst):
   1.27209107  1.48054635  7.27209107
   5.23594638  1.48054635  7.27209107
   3.25401872  0.00000000  6.00000000
   3.25401872  0.00000000  8.54418214
   4.52610979  1.48054635 10.52610979
   1.98192765  1.48054635 10.52610979
   0.00000000  0.00000000  9.25401872
   0.00000000  0.00000000 11.79820086
   1.27209107  1.48054635 13.78012851
   5.23594638  1.48054635 13.78012851
   3.25401872  0.00000000 12.50803745
   3.25401872  0.00000000 15.05221958
   4.55511246  1.48054649 17.04908182
   1.95295412  1.48054659 17.04908725
   0.00000843 11.84437071 15.77714353
   0.00000945  0.00000037 18.32563154
   1.21876323  1.48054576 20.45404209
   5.28928656  1.48054586 20.45404431
   3.25402622  5.92218527 19.01713334
   3.25402179  0.00000100 21.56553563
   1.27209107  4.44163904  7.27209107
   5.23594638  4.44163904  7.27209107
   3.25401872  2.96109269  6.00000000
   3.25401872  2.96109269  8.54418214
   4.52610979  4.44163904 10.52610979
   1.98192765  4.44163904 10.52610979
   0.00000000  2.96109269  9.25401872
   0.00000000  2.96109269 11.79820086
   1.27209107  4.44163904 13.78012851
   5.23594638  4.44163904 13.78012851
   3.25401872  2.96109269 12.50803745
   3.25401872  2.96109269 15.05221958
   4.55511238  4.44163860 17.04908199
   1.95295417  4.44163876 17.04908745
   0.00000858  2.96109292 15.77714312
   0.00000965  2.96109226 18.32563059
   1.21876330  4.44163958 20.45404091
   5.28928592  4.44163981 20.45404299
   3.25402629  2.96109215 19.01713197
   3.25402141  2.96109171 21.56553291
   1.27209107  7.40273173  7.27209107
   5.23594638  7.40273173  7.27209107
   3.25401872  5.92218539  6.00000000
   3.25401872  5.92218539  8.54418214
   4.52610979  7.40273173 10.52610979
   1.98192765  7.40273173 10.52610979
   0.00000000  5.92218539  9.25401872
   0.00000000  5.92218539 11.79820086
   1.27209107  7.40273173 13.78012851
   5.23594638  7.40273173 13.78012851
   3.25401872  5.92218539 12.50803745
   3.25401872  5.92218539 15.05221958
   4.55511246  7.40273188 17.04908182
   1.95295412  7.40273197 17.04908725
   0.00000843  5.92218532 15.77714353
   0.00000945  5.92218575 18.32563154
   1.21876323  7.40273115 20.45404209
   5.28928656  7.40273125 20.45404431
   3.25402622 11.84437066 19.01713334
   1.27209107 10.36382443  7.27209107
   5.23594638 10.36382443  7.27209107
   3.25401872  8.88327808  6.00000000
   3.25401872  8.88327808  8.54418214
   4.52610979 10.36382443 10.52610979
   1.98192765 10.36382443 10.52610979
   0.00000000  8.88327808  9.25401872
   0.00000000  8.88327808 11.79820086
   1.27209107 10.36382443 13.78012851
   5.23594638 10.36382443 13.78012851
   3.25401872  8.88327808 12.50803745
   3.25401872  8.88327808 15.05221958
   4.55511238 10.36382399 17.04908199
   1.95295417 10.36382415 17.04908745
   0.00000858  8.88327830 15.77714312
   0.00000965  8.88327765 18.32563059
   1.21876330 10.36382497 20.45404091
   5.28928592 10.36382520 20.45404299
   3.25402629  8.88327754 19.01713197
   3.25402141  8.88327710 21.56553291
   7.78012851  1.48054635  7.27209107
  11.74398382  1.48054635  7.27209107
   9.76205617  0.00000000  6.00000000
   9.76205617  0.00000000  8.54418214
  11.03414724  1.48054635 10.52610979
   8.48996510  1.48054635 10.52610979
   6.50803745  0.00000000  9.25401872
   6.50803745  0.00000000 11.79820086
   7.78012851  1.48054635 13.78012851
  11.74398382  1.48054635 13.78012851
   9.76205617  0.00000000 12.50803745
   9.76205617  0.00000000 15.05221958
  11.06314990  1.48054649 17.04908182
   8.46099156  1.48054659 17.04908725
   6.50804588 11.84437071 15.77714353
   6.50804690  0.00000037 18.32563154
   7.72680068  1.48054576 20.45404209
  11.79732401  1.48054586 20.45404431
   9.76206366  5.92218527 19.01713334
   9.76205924  0.00000100 21.56553563
   7.78012851  4.44163904  7.27209107
  11.74398382  4.44163904  7.27209107
   9.76205617  2.96109269  6.00000000
   9.76205617  2.96109269  8.54418214
  11.03414724  4.44163904 10.52610979
   8.48996510  4.44163904 10.52610979
   6.50803745  2.96109269  9.25401872
   6.50803745  2.96109269 11.79820086
   7.78012851  4.44163904 13.78012851
  11.74398382  4.44163904 13.78012851
   9.76205617  2.96109269 12.50803745
   9.76205617  2.96109269 15.05221958
  11.06314982  4.44163860 17.04908199
   8.46099162  4.44163876 17.04908745
   6.50804603  2.96109292 15.77714312
   6.50804709  2.96109226 18.32563059
   7.72680074  4.44163958 20.45404091
  11.79732337  4.44163981 20.45404299
   9.76206374  2.96109215 19.01713197
   9.76205886  2.96109171 21.56553291
   7.78012851  7.40273173  7.27209107
  11.74398382  7.40273173  7.27209107
   9.76205617  5.92218539  6.00000000
   9.76205617  5.92218539  8.54418214
  11.03414724  7.40273173 10.52610979
   8.48996510  7.40273173 10.52610979
   6.50803745  5.92218539  9.25401872
   6.50803745  5.92218539 11.79820086
   7.78012851  7.40273173 13.78012851
  11.74398382  7.40273173 13.78012851
   9.76205617  5.92218539 12.50803745
   9.76205617  5.92218539 15.05221958
  11.06314990  7.40273188 17.04908182
   8.46099156  7.40273197 17.04908725
   6.50804588  5.92218532 15.77714353
   6.50804690  5.92218575 18.32563154
   7.72680068  7.40273115 20.45404209
  11.79732401  7.40273125 20.45404431
   9.76206366 11.84437066 19.01713334
   9.76205924  5.92218639 21.56553563
   7.78012851 10.36382443  7.27209107
  11.74398382 10.36382443  7.27209107
   9.76205617  8.88327808  6.00000000
   9.76205617  8.88327808  8.54418214
  11.03414724 10.36382443 10.52610979
   8.48996510 10.36382443 10.52610979
   6.50803745  8.88327808  9.25401872
   6.50803745  8.88327808 11.79820086
   7.78012851 10.36382443 13.78012851
  11.74398382 10.36382443 13.78012851
   9.76205617  8.88327808 12.50803745
   9.76205617  8.88327808 15.05221958
  11.06314982 10.36382399 17.04908199
   8.46099162 10.36382415 17.04908745
   6.50804603  8.88327830 15.77714312
   6.50804709  8.88327765 18.32563059
   7.72680074 10.36382497 20.45404091
  11.79732337 10.36382520 20.45404299
   9.76206374  8.88327754 19.01713197
   9.76205886  8.88327710 21.56553291
   3.25401872  1.48054635  7.27209107
   0.00000000  0.00000000  7.27209107
   0.00000000  1.48054635 10.52610979
   3.25401872  0.00000000 10.52610979
   3.25401872  1.48054635 13.78012851
   0.00000000  0.00000000 13.78012851
   6.50797302  1.48054592 16.96562366
   3.25396959  0.00000029 17.15265292
   3.25402716  1.48055208 20.49660987
   0.00000661 11.84437066 20.13837401
   3.25401872  4.44163904  7.27209107
   0.00000000  2.96109269  7.27209107
   0.00000000  4.44163904 10.52610979
   3.25401872  2.96109269 10.52610979
   3.25401872  4.44163904 13.78012851
   0.00000000  2.96109269 13.78012851
   6.50797282  4.44163959 16.96562409
   3.25396973  2.96109318 17.15265482
   3.25402731  4.44163369 20.49661455
   0.00000603  2.96109319 20.13837368
   3.25401872  7.40273173  7.27209107
   0.00000000  5.92218539  7.27209107
   0.00000000  7.40273173 10.52610979
   3.25401872  5.92218539 10.52610979
   3.25401872  7.40273173 13.78012851
   0.00000000  5.92218539 13.78012851
   6.50797302  7.40273130 16.96562366
   3.25396959  5.92218568 17.15265292
   3.25402716  7.40273746 20.49660987
   0.00000661  5.92218527 20.13837401
   3.25401872 10.36382443  7.27209107
   0.00000000  8.88327808  7.27209107
   0.00000000 10.36382443 10.52610979
   3.25401872  8.88327808 10.52610979
   3.25401872 10.36382443 13.78012851
   0.00000000  8.88327808 13.78012851
   6.50797282 10.36382497 16.96562409
   3.25396973  8.88327856 17.15265482
   3.25402731 10.36381907 20.49661455
   0.00000603  8.88327857 20.13837368
   9.76205617  1.48054635  7.27209107
   6.50803745  0.00000000  7.27209107
   6.50803745  1.48054635 10.52610979
   9.76205617  0.00000000 10.52610979
   9.76205617  1.48054635 13.78012851
   6.50803745  0.00000000 13.78012851
  13.01601046  1.48054592 16.96562366
   9.76200703  0.00000029 17.15265292
   9.76206461  1.48055208 20.49660987
   6.50804406 11.84437066 20.13837401
   9.76205617  4.44163904  7.27209107
   6.50803745  2.96109269  7.27209107
   6.50803745  4.44163904 10.52610979
   9.76205617  2.96109269 10.52610979
   9.76205617  4.44163904 13.78012851
   6.50803745  2.96109269 13.78012851
  13.01601027  4.44163959 16.96562409
   9.76200717  2.96109318 17.15265482
   9.76206476  4.44163369 20.49661455
   6.50804348  2.96109319 20.13837368
   9.76205617  7.40273173  7.27209107
   6.50803745  5.92218539  7.27209107
   6.50803745  7.40273173 10.52610979
   9.76205617  5.92218539 10.52610979
   9.76205617  7.40273173 13.78012851
   6.50803745  5.92218539 13.78012851
  13.01601046  7.40273130 16.96562366
   9.76200703  5.92218568 17.15265292
   9.76206461  7.40273746 20.49660987
   6.50804406  5.92218527 20.13837401
   9.76205617 10.36382443  7.27209107
   6.50803745  8.88327808  7.27209107
   6.50803745 10.36382443 10.52610979
   9.76205617  8.88327808 10.52610979
   9.76205617 10.36382443 13.78012851
   6.50803745  8.88327808 13.78012851
  13.01601027 10.36382497 16.96562409
   9.76200717  8.88327856 17.15265482
   9.76206476 10.36381907 20.49661455
   6.50804348  8.88327857 20.13837368



--------------------------------------------------------------------------------------------------------


 k-point   1 :   0.0000 0.0000 0.0000  plane waves:  107969
 k-point   2 :   0.5000 0.0000 0.0000  plane waves:  107900
 k-point   3 :   0.0000 0.5000 0.0000  plane waves:  107896
 k-point   4 :   0.5000 0.5000 0.0000  plane waves:  107740

 maximum and minimum number of plane-waves per node :     27010    26934

 maximum number of plane-waves:    107969
 maximum index in each direction: 
   IXMAX=   23   IYMAX=   21   IZMAX=   50
   IXMIN=  -24   IYMIN=  -22   IZMIN=  -50


 real space projection operators:
  total allocation   :      25556.06 KBytes
  max/ min on nodes  :       6459.38       6339.31


 parallel 3D FFT for wavefunctions:
    minimum data exchange during FFTs selected (reduces bandwidth)
 parallel 3D FFT for charge:
    minimum data exchange during FFTs selected (reduces bandwidth)


 Radii for the augmentation spheres in the non-local exchange
 for species   1 augmentation radius   0.902 (default was   0.722)
       energy cutoff for augmentation   2000.0
 for species   2 augmentation radius   1.300 (default was   1.040)
       energy cutoff for augmentation   2000.0

 real space projection operators:
  total allocation   :      33770.27 KBytes
  max/ min on nodes  :       8555.87       8356.76

 Maximum index for augmentation-charges in exchange          460
  SETUP_FOCK is finished

 total amount of memory used by VASP MPI-rank0   184226. kBytes
=======================================================================

   base      :      30000. kBytes
   nonlr-proj:      32513. kBytes
   fftplans  :      14056. kBytes
   grid      :      10604. kBytes
   one-center:        933. kBytes
   HF        :        129. kBytes
   wavefun   :      95991. kBytes

     INWAV:  cpu time   36.4314: real time   36.4335
 Broyden mixing: mesh for mixing (old mesh)
   NGX = 47   NGY = 43   NGZ =101
  (NGX  =144   NGY  =140   NGZ  =320)
  gives a total of 204121 points

 charge density for first step will be calculated from the start-wavefunctions


[...]
     11.06315     10.36382     17.04908        -0.065088      0.015656      0.017094
      8.46099     10.36382     17.04909         0.065391      0.015664      0.017103
      6.50805      8.88328     15.77714         0.007120     -0.001560      0.192477
      6.50805      8.88328     18.32563         0.001602     -0.010449      0.148612
      7.72680     10.36382     20.45404        -0.219531     -0.006614     -0.044505
     11.79732     10.36383     20.45404         0.219620     -0.006723     -0.044539
      9.76206      8.88328     19.01713         0.000006     -0.001615     -0.137905
      9.76206      8.88328     21.56553         0.000024     -0.003853     -0.443579
      3.25402      1.48055      7.27209        -0.000055      0.006083     -4.033935
      0.00000      0.00000      7.27209         0.000755      0.000017      3.321272
      0.00000      1.48055     10.52611         0.005408      0.008056      0.602096
      3.25402      0.00000     10.52611        -0.000044     -0.000002     -0.771074
      3.25402      1.48055     13.78013        -0.000081      0.023780      0.757755
      0.00000      0.00000     13.78013         0.010981      0.000001     -0.792747
      6.50797      1.48055     16.96562        -0.047680     -0.003123     -0.125927
      3.25397      0.00000     17.15265         0.000268     -0.000032      0.189173
      3.25403      1.48055     20.49661        -0.000089      0.117568      0.294563
      0.00001     11.84437     20.13837         0.025420      0.000034     -0.265716
      3.25402      4.44164      7.27209        -0.000017     -0.005062     -4.032012
      0.00000      2.96109      7.27209         0.000849     -0.000192      3.343585
      0.00000      4.44164     10.52611         0.006710     -0.006562      0.602977
      3.25402      2.96109     10.52611        -0.000059      0.002785     -0.812313
      3.25402      4.44164     13.78013        -0.000067      0.019304      0.787977
      0.00000      2.96109     13.78013         0.014516      0.005217     -0.750730
      6.50797      4.44164     16.96562        -0.072912     -0.012551     -0.143894
      3.25397      2.96109     17.15265         0.000242      0.091485      0.235160
      3.25403      4.44163     20.49661        -0.000143     -0.154724     -1.237807
      0.00001      2.96109     20.13837        -0.068175     -0.096416     -0.234039
      3.25402      7.40273      7.27209        -0.000053      0.005033     -4.032090
      0.00000      5.92219      7.27209         0.000930      0.000002      3.322396
      0.00000      7.40273     10.52611         0.006707      0.006556      0.602992
      3.25402      5.92219     10.52611        -0.000045     -0.000022     -0.757610
      3.25402      7.40273     13.78013        -0.000030     -0.019351      0.787918
      0.00000      5.92219     13.78013         0.017641     -0.000013     -0.791204
      6.50797      7.40273     16.96562        -0.072919      0.012586     -0.143866
      3.25397      5.92219     17.15265         0.000120     -0.000066      0.317973
      3.25403      7.40274     20.49661        -0.001306      0.154721     -1.237757
      0.00001      5.92219     20.13837         0.044732      0.000018     -0.352447
      3.25402     10.36382      7.27209        -0.000039     -0.006106     -4.033858
      0.00000      8.88328      7.27209         0.000852      0.000139      3.343578
      0.00000     10.36382     10.52611         0.005424     -0.008048      0.602094
      3.25402      8.88328     10.52611        -0.000042     -0.002798     -0.812314
      3.25402     10.36382     13.78013        -0.000055     -0.023759      0.757757
      0.00000      8.88328     13.78013         0.014510     -0.005212     -0.750728
      6.50797     10.36382     16.96562        -0.047690      0.003088     -0.125909
      3.25397      8.88328     17.15265         0.000205     -0.091547      0.235214
      3.25403     10.36382     20.49661        -0.000040     -0.117624      0.294513
      0.00001      8.88328     20.13837        -0.068292      0.096426     -0.234028
      9.76206      1.48055      7.27209        -0.000084      0.005361     -4.037525
      6.50804      0.00000      7.27209        -0.000877      0.000000      3.321292
      6.50804      1.48055     10.52611        -0.005508      0.008048      0.602106
      9.76206      0.00000     10.52611        -0.000058      0.000008     -0.784186
      9.76206      1.48055     13.78013        -0.000063     -0.005618      0.734622
      6.50804      0.00000     13.78013        -0.011007      0.000006     -0.792740
     13.01601      1.48055     16.96562         0.048374     -0.003114     -0.125931
      9.76201      0.00000     17.15265         0.000250     -0.000015      0.179834
      9.76206      1.48055     20.49661        -0.000134      0.005178      0.246858
      6.50804     11.84437     20.13837        -0.025495     -0.000051     -0.265776
      9.76206      4.44164      7.27209        -0.000036     -0.005820     -4.037050
      6.50804      2.96109      7.27209        -0.000919     -0.000185      3.343667
      6.50804      4.44164     10.52611        -0.006794     -0.006550      0.602999
      9.76206      2.96109     10.52611        -0.000037      0.000433     -0.831981
      9.76206      4.44164     13.78013        -0.000088      0.005884      0.734285
      6.50804      2.96109     13.78013        -0.014544      0.005212     -0.750689
     13.01601      4.44164     16.96562         0.073635     -0.012622     -0.143958
      9.76201      2.96109     17.15265         0.000251     -0.002498      0.219061
      9.76206      4.44163     20.49661        -0.000194     -0.013112      0.242031
      6.50804      2.96109     20.13837         0.068039     -0.096329     -0.234081
      9.76206      7.40273      7.27209        -0.000026      0.005811     -4.037040
      6.50804      5.92219      7.27209        -0.001003     -0.000002      3.322344
      6.50804      7.40273     10.52611        -0.006781      0.006559      0.602994
      9.76206      5.92219     10.52611        -0.000044     -0.000020     -0.783781
      9.76206      7.40273     13.78013        -0.000076     -0.005883      0.734270
      6.50804      5.92219     13.78013        -0.017661     -0.000009     -0.791186
     13.01601      7.40273     16.96562         0.073598      0.012586     -0.143977
      9.76201      5.92219     17.15265         0.000247      0.000006      0.177936
      9.76206      7.40274     20.49661        -0.000224      0.013083      0.242098
      6.50804      5.92219     20.13837        -0.045276      0.000111     -0.352208
      9.76206     10.36382      7.27209        -0.000036     -0.005378     -4.037500
      6.50804      8.88328      7.27209        -0.000928      0.000158      3.343662
      6.50804     10.36382     10.52611        -0.005522     -0.008051      0.602114
      9.76206      8.88328     10.52611        -0.000033     -0.000427     -0.831975
      9.76206     10.36382     13.78013        -0.000059      0.005614      0.734621
      6.50804      8.88328     13.78013        -0.014514     -0.005215     -0.750698
     13.01601     10.36382     16.96562         0.048370      0.003145     -0.125963
      9.76201      8.88328     17.15265         0.000222      0.002477      0.219071
      9.76206     10.36382     20.49661        -0.000176     -0.005166      0.246809
      6.50804      8.88328     20.13837         0.067952      0.096208     -0.234029
 -----------------------------------------------------------------------------------
    total drift:                                0.010026     -0.000033      0.729347


--------------------------------------------------------------------------------------------------------



  FREE ENERGIE OF THE ION-ELECTRON SYSTEM (eV)
  ---------------------------------------------------
  free  energy   TOTEN  =     -2785.64471227 eV

  energy  without entropy=    -2785.64471227  energy(sigma->0) =    -2785.64471227



--------------------------------------------------------------------------------------------------------


    POTLOK:  cpu time    0.1653: real time    0.1759


--------------------------------------------------------------------------------------------------------


 writing wavefunctions
     LOOP+:  cpu time16253.1335: real time16306.1275
    4ORBIT:  cpu time    0.0000: real time    0.0000



 total charge

# of ion       s       p       d       tot
------------------------------------------
    1        1.579   3.525   0.000   5.104
    2        1.579   3.525   0.000   5.104
    3        1.586   3.412   0.000   4.997
    4        1.576   3.551   0.000   5.127
    5        1.576   3.546   0.000   5.121
    6        1.576   3.546   0.000   5.121
    7        1.574   3.533   0.000   5.107
    8        1.576   3.542   0.000   5.118
    9        1.577   3.543   0.000   5.120
   10        1.577   3.543   0.000   5.120
   11        1.576   3.548   0.000   5.124
   12        1.575   3.522   0.000   5.096
   13        1.575   3.542   0.000   5.116
   14        1.575   3.542   0.000   5.116
   15        1.580   3.564   0.000   5.144
   16        1.578   3.560   0.000   5.138
   17        1.574   3.534   0.000   5.108
   18        1.574   3.534   0.000   5.108
   19        1.573   3.507   0.000   5.080
   20        1.594   3.484   0.000   5.078
   21        1.579   3.525   0.000   5.104
   22        1.579   3.525   0.000   5.104
   23        1.586   3.412   0.000   4.997
   24        1.576   3.551   0.000   5.127
   25        1.576   3.546   0.000   5.121
   26        1.576   3.546   0.000   5.121
   27        1.574   3.533   0.000   5.107
   28        1.576   3.542   0.000   5.118
   29        1.577   3.543   0.000   5.120
   30        1.577   3.543   0.000   5.120
   31        1.576   3.548   0.000   5.124
   32        1.575   3.521   0.000   5.096
   33        1.575   3.542   0.000   5.116
   34        1.575   3.542   0.000   5.116
   35        1.580   3.564   0.000   5.144
   36        1.578   3.560   0.000   5.138
   37        1.574   3.535   0.000   5.109
   38        1.574   3.535   0.000   5.109
   39        1.575   3.508   0.000   5.083
   40        1.592   3.490   0.000   5.082
   41        1.579   3.525   0.000   5.104
   42        1.579   3.525   0.000   5.104
   43        1.586   3.412   0.000   4.997
   44        1.576   3.551   0.000   5.127
   45        1.576   3.546   0.000   5.121
   46        1.576   3.546   0.000   5.121
   47        1.574   3.533   0.000   5.107
   48        1.576   3.542   0.000   5.118
   49        1.577   3.543   0.000   5.120
   50        1.577   3.543   0.000   5.120
   51        1.576   3.548   0.000   5.124
   52        1.575   3.521   0.000   5.096
   53        1.575   3.542   0.000   5.116
   54        1.575   3.542   0.000   5.116
   55        1.580   3.564   0.000   5.144
   56        1.578   3.559   0.000   5.138
   57        1.574   3.535   0.000   5.109
   58        1.574   3.535   0.000   5.109
   59        1.573   3.517   0.000   5.091
   60        1.579   3.525   0.000   5.104
   61        1.579   3.525   0.000   5.104
   62        1.586   3.412   0.000   4.997
   63        1.576   3.551   0.000   5.127
   64        1.576   3.546   0.000   5.121
   65        1.576   3.546   0.000   5.121
   66        1.574   3.533   0.000   5.107
   67        1.576   3.542   0.000   5.118
   68        1.577   3.543   0.000   5.120
   69        1.577   3.543   0.000   5.120
   70        1.576   3.548   0.000   5.124
   71        1.575   3.521   0.000   5.096
   72        1.575   3.542   0.000   5.116
   73        1.575   3.542   0.000   5.116
   74        1.580   3.564   0.000   5.144
   75        1.578   3.560   0.000   5.138
   76        1.574   3.534   0.000   5.108
   77        1.574   3.534   0.000   5.108
   78        1.575   3.508   0.000   5.083
   79        1.592   3.490   0.000   5.082
   80        1.579   3.525   0.000   5.104
   81        1.579   3.525   0.000   5.104
   82        1.586   3.412   0.000   4.997
   83        1.576   3.551   0.000   5.127
   84        1.576   3.546   0.000   5.121
   85        1.576   3.546   0.000   5.121
   86        1.574   3.533   0.000   5.107
   87        1.576   3.542   0.000   5.118
   88        1.577   3.543   0.000   5.120
   89        1.577   3.543   0.000   5.120
   90        1.576   3.547   0.000   5.124
   91        1.575   3.522   0.000   5.096
   92        1.575   3.541   0.000   5.116
   93        1.575   3.541   0.000   5.116
   94        1.580   3.564   0.000   5.144
   95        1.578   3.560   0.000   5.138
   96        1.574   3.534   0.000   5.108
   97        1.574   3.534   0.000   5.108
   98        1.574   3.517   0.000   5.091
   99        1.595   3.483   0.000   5.078
  100        1.579   3.525   0.000   5.104
  101        1.579   3.525   0.000   5.104
  102        1.586   3.412   0.000   4.997
  103        1.576   3.551   0.000   5.127
  104        1.576   3.546   0.000   5.121
  105        1.576   3.546   0.000   5.121
  106        1.574   3.533   0.000   5.107
  107        1.576   3.542   0.000   5.118
  108        1.577   3.543   0.000   5.120
  109        1.577   3.543   0.000   5.120
  110        1.576   3.547   0.000   5.124
  111        1.575   3.522   0.000   5.096
  112        1.575   3.542   0.000   5.116
  113        1.575   3.542   0.000   5.116
  114        1.580   3.564   0.000   5.144
  115        1.578   3.560   0.000   5.138
  116        1.574   3.534   0.000   5.108
  117        1.574   3.534   0.000   5.108
  118        1.574   3.517   0.000   5.091
  119        1.594   3.484   0.000   5.078
  120        1.579   3.525   0.000   5.104
  121        1.579   3.525   0.000   5.104
  122        1.586   3.412   0.000   4.997
  123        1.576   3.551   0.000   5.127
  124        1.576   3.546   0.000   5.121
  125        1.576   3.546   0.000   5.121
  126        1.574   3.533   0.000   5.107
  127        1.576   3.542   0.000   5.118
  128        1.577   3.543   0.000   5.120
  129        1.577   3.543   0.000   5.120
  130        1.576   3.547   0.000   5.124
  131        1.575   3.522   0.000   5.096
  132        1.575   3.542   0.000   5.116
  133        1.575   3.542   0.000   5.116
  134        1.580   3.564   0.000   5.144
  135        1.578   3.559   0.000   5.138
  136        1.574   3.534   0.000   5.108
  137        1.574   3.534   0.000   5.108
  138        1.574   3.517   0.000   5.091
  139        1.594   3.484   0.000   5.078
  140        1.579   3.525   0.000   5.104
  141        1.579   3.525   0.000   5.104
  142        1.586   3.412   0.000   4.997
  143        1.576   3.551   0.000   5.127
  144        1.576   3.546   0.000   5.121
  145        1.576   3.546   0.000   5.121
  146        1.574   3.533   0.000   5.107
  147        1.576   3.542   0.000   5.118
  148        1.577   3.543   0.000   5.120
  149        1.577   3.543   0.000   5.120
  150        1.576   3.547   0.000   5.124
  151        1.575   3.522   0.000   5.096
  152        1.575   3.541   0.000   5.116
  153        1.575   3.541   0.000   5.116
  154        1.580   3.564   0.000   5.144
  155        1.578   3.560   0.000   5.138
  156        1.574   3.534   0.000   5.108
  157        1.574   3.534   0.000   5.108
  158        1.574   3.517   0.000   5.091
  159        1.594   3.484   0.000   5.078
  160        2.222   6.314   1.613  10.150
  161        2.207   6.264   1.577  10.048
  162        2.226   6.316   1.560  10.101
  163        2.226   6.318   1.564  10.109
  164        2.225   6.317   1.568  10.111
  165        2.223   6.314   1.562  10.099
  166        2.230   6.323   1.588  10.141
  167        2.225   6.307   1.571  10.103
  168        2.224   6.303   1.643  10.170
  169        2.236   6.301   1.668  10.206
  170        2.222   6.314   1.613  10.150
  171        2.207   6.264   1.578  10.049
  172        2.226   6.316   1.560  10.101
  173        2.226   6.318   1.565  10.109
  174        2.225   6.317   1.569  10.111
  175        2.223   6.314   1.562  10.099
  176        2.230   6.323   1.588  10.141
  177        2.224   6.306   1.578  10.108
  178        2.193   6.231   1.667  10.090
  179        2.236   6.300   1.670  10.206
  180        2.222   6.314   1.613  10.150
  181        2.207   6.264   1.577  10.048
  182        2.226   6.316   1.560  10.101
  183        2.226   6.318   1.564  10.109
  184        2.225   6.317   1.569  10.111
  185        2.223   6.314   1.562  10.099
  186        2.230   6.323   1.588  10.141
  187        2.224   6.306   1.576  10.106
  188        2.193   6.231   1.667  10.090
  189        2.236   6.301   1.673  10.210
  190        2.222   6.314   1.613  10.150
  191        2.207   6.264   1.578  10.049
  192        2.226   6.316   1.560  10.101
  193        2.226   6.318   1.565  10.109
  194        2.225   6.317   1.568  10.111
  195        2.223   6.314   1.562  10.099
  196        2.230   6.323   1.588  10.141
  197        2.224   6.306   1.578  10.108
  198        2.224   6.303   1.643  10.170
  199        2.236   6.300   1.670  10.206
  200        2.222   6.314   1.613  10.150
  201        2.207   6.264   1.577  10.048
  202        2.226   6.316   1.560  10.101
  203        2.226   6.318   1.564  10.109
  204        2.225   6.317   1.568  10.111
  205        2.223   6.314   1.562  10.099
  206        2.230   6.323   1.588  10.141
  207        2.225   6.307   1.571  10.103
  208        2.224   6.303   1.645  10.172
  209        2.236   6.301   1.668  10.206
  210        2.222   6.314   1.613  10.150
  211        2.207   6.264   1.578  10.049
  212        2.226   6.316   1.560  10.101
  213        2.226   6.318   1.565  10.109
  214        2.225   6.317   1.568  10.111
  215        2.223   6.314   1.562  10.099
  216        2.230   6.323   1.588  10.141
  217        2.225   6.307   1.571  10.103
  218        2.224   6.303   1.646  10.173
  219        2.236   6.300   1.670  10.206
  220        2.222   6.314   1.613  10.150
  221        2.207   6.264   1.577  10.048
  222        2.226   6.316   1.560  10.101
  223        2.226   6.318   1.564  10.109
  224        2.225   6.317   1.568  10.111
  225        2.223   6.314   1.562  10.099
  226        2.230   6.323   1.588  10.141
  227        2.225   6.307   1.571  10.103
  228        2.224   6.303   1.646  10.173
  229        2.236   6.301   1.673  10.210
  230        2.222   6.314   1.613  10.150
  231        2.207   6.264   1.578  10.049
  232        2.226   6.316   1.560  10.101
  233        2.226   6.318   1.565  10.109
  234        2.225   6.317   1.568  10.111
  235        2.223   6.314   1.562  10.099
  236        2.230   6.323   1.588  10.141
  237        2.225   6.307   1.571  10.103
  238        2.224   6.303   1.645  10.172
  239        2.236   6.300   1.670  10.206
--------------------------------------------------
tot        428.6931065.843 127.4151621.950


 total amount of memory used by VASP MPI-rank0   676242. kBytes
=======================================================================

   base      :      30000. kBytes
   nonlr-proj:      54767. kBytes
   fftplans  :      14056. kBytes
   grid      :      10604. kBytes
   one-center:        933. kBytes
   HF        :        129. kBytes
   wavefun   :      95991. kBytes
   fock_wrk  :     469762. kBytes

  
  
 General timing and accounting informations for this job:
 ========================================================
  
                  Total CPU time used (sec):    16316.127
                            User time (sec):    16229.717
                          System time (sec):       86.411
                         Elapsed time (sec):    16373.040
  
                   Maximum memory used (kb):     2302852.
                   Average memory used (kb):          N/A
  
                          Minor page faults:     21429100
                          Major page faults:           23
                 Voluntary context switches:        99062
