 **********************************************************************
                          MRCC program system
 **********************************************************************
 
                              Written by
 Mihaly Kallay, Peter R. Nagy, David Mester, Zoltan Rolik, Gyula Samu,
   Jozsef Csontos, Jozsef Csoka, P. Bernat Szabo, Laszlo Gyevi-Nagy,
    Bence Hegely, Istvan Ladjanszki, Lorant Szegedy, Bence Ladoczki,
       Klara Petrov, Mate Farkas, Pal D. Mezei, and Adam Ganyecz
 
        Department of Physical Chemistry and Materials Science
            Budapest University of Technology and Economics
                  Budapest P.O.Box 91, H-1521 Hungary
 
                              www.mrcc.hu
 
                    Release date: February 22, 2020

 ************************ 2021-11-18 07:46:47 *************************
 Executing minp...

 Reading input from MINP...
 
 Input file:
 
calc=LNO-CCSD(T)
scftype=rhf
verbosity=3
mem=490GB
symm=off
unit=angs
scfiguess=small
scfmaxit=1000
scfalg=locfit1

lcorthr=normal
ccmaxit=400
usedisk=0
ccsdalg=dfdirect
ccsdthreads=4
ccsdmkl=thr
ptthreads=4

charge=-42
core=123

basis=special
def2-QZVPP
def2-QZVPP
def2-QZVPP
def2-QZVPP
def2-QZVPP
def2-QZVPP
def2-QZVPP
def2-QZVPP
def2-QZVPP
def2-QZVPP
def2-QZVPP
def2-QZVPP
def2-QZVPP
def2-QZVPP
def2-QZVPP
def2-QZVPP
def2-QZVPP
def2-QZVPP
def2-QZVPP
def2-QZVPP
def2-QZVPP
def2-QZVPP
def2-QZVPP
def2-QZVPP
def2-QZVPP
def2-QZVPP
def2-QZVPP
def2-QZVPP
def2-QZVPP
def2-QZVPP
def2-QZVPP
def2-QZVPP
def2-QZVPP
def2-QZVPP
def2-QZVPP
def2-QZVPP
def2-QZVPP
def2-QZVPP
def2-QZVPP
def2-QZVPP
def2-QZVPP
def2-QZVPP
def2-QZVPP
def2-QZVPP
def2-QZVPP
def2-QZVPP
def2-QZVPP
def2-QZVPP
def2-QZVPP
def2-QZVPP
def2-QZVPP
def2-QZVPP
def2-QZVPP
def2-QZVPP
def2-QZVPP
nothing
nothing
nothing
nothing
nothing
nothing
nothing
nothing
nothing
nothing
nothing
nothing
nothing
nothing
nothing
nothing
nothing
nothing
nothing
nothing
nothing
nothing
nothing
nothing
nothing
nothing
nothing
nothing
nothing
nothing
nothing
nothing
nothing
nothing
nothing
nothing
nothing
nothing
nothing
nothing
nothing
nothing
nothing
nothing
nothing
nothing
nothing
nothing
nothing
nothing
nothing
nothing
nothing
nothing
nothing
nothing
nothing
nothing
nothing
nothing
nothing
nothing
nothing
nothing
nothing
nothing
nothing
nothing
nothing
nothing
nothing
nothing
nothing
nothing
nothing
nothing
nothing
nothing
nothing
nothing
nothing
nothing
nothing
nothing
nothing
nothing
nothing
nothing
nothing
nothing
nothing
nothing
nothing
nothing
nothing
nothing
nothing
nothing
nothing
nothing
nothing
nothing
nothing
nothing
nothing
nothing
nothing
nothing
nothing
nothing
nothing
nothing
nothing
nothing
nothing
nothing
nothing
nothing
nothing
nothing
nothing
nothing
nothing
nothing
nothing
nothing
nothing
nothing
nothing
nothing
nothing
nothing
nothing
nothing
nothing
nothing
nothing
nothing
nothing
nothing
nothing
nothing
nothing
nothing
nothing
nothing
nothing
nothing
nothing
nothing
nothing
nothing
nothing
nothing
nothing
nothing
nothing
nothing
nothing
nothing
nothing
nothing
nothing
nothing
nothing
nothing
nothing
nothing
nothing
nothing
nothing
nothing
nothing
nothing
nothing
nothing
nothing
nothing
nothing
nothing
nothing
nothing
nothing
nothing
nothing
nothing
nothing
nothing
nothing
nothing
nothing
nothing
nothing
nothing
nothing
nothing
nothing
nothing
nothing
nothing
nothing
nothing
nothing
nothing
nothing
nothing
nothing
nothing
nothing
nothing
nothing
nothing
nothing
nothing
nothing
nothing
nothing
nothing
nothing
nothing
nothing
nothing
nothing
nothing
nothing
nothing
nothing
nothing
nothing
nothing
nothing
nothing
nothing
nothing
nothing
nothing
nothing
nothing

basis_sm=special
STO-3G
STO-3G
STO-3G
STO-3G
STO-3G
STO-3G
STO-3G
STO-3G
STO-3G
STO-3G
STO-3G
STO-3G
STO-3G
STO-3G
STO-3G
STO-3G
STO-3G
STO-3G
STO-3G
STO-3G
STO-3G
STO-3G
STO-3G
STO-3G
STO-3G
STO-3G
STO-3G
STO-3G
STO-3G
STO-3G
STO-3G
STO-3G
STO-3G
STO-3G
STO-3G
STO-3G
STO-3G
STO-3G
STO-3G
STO-3G
STO-3G
STO-3G
STO-3G
STO-3G
STO-3G
STO-3G
STO-3G
STO-3G
STO-3G
STO-3G
STO-3G
STO-3G
STO-3G
STO-3G
STO-3G
nothing
nothing
nothing
nothing
nothing
nothing
nothing
nothing
nothing
nothing
nothing
nothing
nothing
nothing
nothing
nothing
nothing
nothing
nothing
nothing
nothing
nothing
nothing
nothing
nothing
nothing
nothing
nothing
nothing
nothing
nothing
nothing
nothing
nothing
nothing
nothing
nothing
nothing
nothing
nothing
nothing
nothing
nothing
nothing
nothing
nothing
nothing
nothing
nothing
nothing
nothing
nothing
nothing
nothing
nothing
nothing
nothing
nothing
nothing
nothing
nothing
nothing
nothing
nothing
nothing
nothing
nothing
nothing
nothing
nothing
nothing
nothing
nothing
nothing
nothing
nothing
nothing
nothing
nothing
nothing
nothing
nothing
nothing
nothing
nothing
nothing
nothing
nothing
nothing
nothing
nothing
nothing
nothing
nothing
nothing
nothing
nothing
nothing
nothing
nothing
nothing
nothing
nothing
nothing
nothing
nothing
nothing
nothing
nothing
nothing
nothing
nothing
nothing
nothing
nothing
nothing
nothing
nothing
nothing
nothing
nothing
nothing
nothing
nothing
nothing
nothing
nothing
nothing
nothing
nothing
nothing
nothing
nothing
nothing
nothing
nothing
nothing
nothing
nothing
nothing
nothing
nothing
nothing
nothing
nothing
nothing
nothing
nothing
nothing
nothing
nothing
nothing
nothing
nothing
nothing
nothing
nothing
nothing
nothing
nothing
nothing
nothing
nothing
nothing
nothing
nothing
nothing
nothing
nothing
nothing
nothing
nothing
nothing
nothing
nothing
nothing
nothing
nothing
nothing
nothing
nothing
nothing
nothing
nothing
nothing
nothing
nothing
nothing
nothing
nothing
nothing
nothing
nothing
nothing
nothing
nothing
nothing
nothing
nothing
nothing
nothing
nothing
nothing
nothing
nothing
nothing
nothing
nothing
nothing
nothing
nothing
nothing
nothing
nothing
nothing
nothing
nothing
nothing
nothing
nothing
nothing
nothing
nothing
nothing
nothing
nothing
nothing
nothing
nothing
nothing
nothing
nothing
nothing
nothing
nothing
nothing
nothing
nothing

dfbasis_scf=special
def2-QZVPP-RI-JK
def2-QZVPP-RI-JK
def2-QZVPP-RI-JK
def2-QZVPP-RI-JK
def2-QZVPP-RI-JK
def2-QZVPP-RI-JK
def2-QZVPP-RI-JK
def2-QZVPP-RI-JK
def2-QZVPP-RI-JK
def2-QZVPP-RI-JK
def2-QZVPP-RI-JK
def2-QZVPP-RI-JK
def2-QZVPP-RI-JK
def2-QZVPP-RI-JK
def2-QZVPP-RI-JK
def2-QZVPP-RI-JK
def2-QZVPP-RI-JK
def2-QZVPP-RI-JK
def2-QZVPP-RI-JK
def2-QZVPP-RI-JK
def2-QZVPP-RI-JK
def2-QZVPP-RI-JK
def2-QZVPP-RI-JK
def2-QZVPP-RI-JK
def2-QZVPP-RI-JK
def2-QZVPP-RI-JK
def2-QZVPP-RI-JK
def2-QZVPP-RI-JK
def2-QZVPP-RI-JK
def2-QZVPP-RI-JK
def2-QZVPP-RI-JK
def2-QZVPP-RI-JK
def2-QZVPP-RI-JK
def2-QZVPP-RI-JK
def2-QZVPP-RI-JK
def2-QZVPP-RI-JK
def2-QZVPP-RI-JK
def2-QZVPP-RI-JK
def2-QZVPP-RI-JK
def2-QZVPP-RI-JK
def2-QZVPP-RI-JK
def2-QZVPP-RI-JK
def2-QZVPP-RI-JK
def2-QZVPP-RI-JK
def2-QZVPP-RI-JK
def2-QZVPP-RI-JK
def2-QZVPP-RI-JK
def2-QZVPP-RI-JK
def2-QZVPP-RI-JK
def2-QZVPP-RI-JK
def2-QZVPP-RI-JK
def2-QZVPP-RI-JK
def2-QZVPP-RI-JK
def2-QZVPP-RI-JK
def2-QZVPP-RI-JK
nothing
nothing
nothing
nothing
nothing
nothing
nothing
nothing
nothing
nothing
nothing
nothing
nothing
nothing
nothing
nothing
nothing
nothing
nothing
nothing
nothing
nothing
nothing
nothing
nothing
nothing
nothing
nothing
nothing
nothing
nothing
nothing
nothing
nothing
nothing
nothing
nothing
nothing
nothing
nothing
nothing
nothing
nothing
nothing
nothing
nothing
nothing
nothing
nothing
nothing
nothing
nothing
nothing
nothing
nothing
nothing
nothing
nothing
nothing
nothing
nothing
nothing
nothing
nothing
nothing
nothing
nothing
nothing
nothing
nothing
nothing
nothing
nothing
nothing
nothing
nothing
nothing
nothing
nothing
nothing
nothing
nothing
nothing
nothing
nothing
nothing
nothing
nothing
nothing
nothing
nothing
nothing
nothing
nothing
nothing
nothing
nothing
nothing
nothing
nothing
nothing
nothing
nothing
nothing
nothing
nothing
nothing
nothing
nothing
nothing
nothing
nothing
nothing
nothing
nothing
nothing
nothing
nothing
nothing
nothing
nothing
nothing
nothing
nothing
nothing
nothing
nothing
nothing
nothing
nothing
nothing
nothing
nothing
nothing
nothing
nothing
nothing
nothing
nothing
nothing
nothing
nothing
nothing
nothing
nothing
nothing
nothing
nothing
nothing
nothing
nothing
nothing
nothing
nothing
nothing
nothing
nothing
nothing
nothing
nothing
nothing
nothing
nothing
nothing
nothing
nothing
nothing
nothing
nothing
nothing
nothing
nothing
nothing
nothing
nothing
nothing
nothing
nothing
nothing
nothing
nothing
nothing
nothing
nothing
nothing
nothing
nothing
nothing
nothing
nothing
nothing
nothing
nothing
nothing
nothing
nothing
nothing
nothing
nothing
nothing
nothing
nothing
nothing
nothing
nothing
nothing
nothing
nothing
nothing
nothing
nothing
nothing
nothing
nothing
nothing
nothing
nothing
nothing
nothing
nothing
nothing
nothing
nothing
nothing
nothing
nothing
nothing
nothing
nothing
nothing
nothing
nothing
nothing
nothing
nothing
nothing
nothing
nothing

dfbasis_cor=special
def2-QZVPP-RI
def2-QZVPP-RI
def2-QZVPP-RI
def2-QZVPP-RI
def2-QZVPP-RI
def2-QZVPP-RI
def2-QZVPP-RI
def2-QZVPP-RI
def2-QZVPP-RI
def2-QZVPP-RI
def2-QZVPP-RI
def2-QZVPP-RI
def2-QZVPP-RI
def2-QZVPP-RI
def2-QZVPP-RI
def2-QZVPP-RI
def2-QZVPP-RI
def2-QZVPP-RI
def2-QZVPP-RI
def2-QZVPP-RI
def2-QZVPP-RI
def2-QZVPP-RI
def2-QZVPP-RI
def2-QZVPP-RI
def2-QZVPP-RI
def2-QZVPP-RI
def2-QZVPP-RI
def2-QZVPP-RI
def2-QZVPP-RI
def2-QZVPP-RI
def2-QZVPP-RI
def2-QZVPP-RI
def2-QZVPP-RI
def2-QZVPP-RI
def2-QZVPP-RI
def2-QZVPP-RI
def2-QZVPP-RI
def2-QZVPP-RI
def2-QZVPP-RI
def2-QZVPP-RI
def2-QZVPP-RI
def2-QZVPP-RI
def2-QZVPP-RI
def2-QZVPP-RI
def2-QZVPP-RI
def2-QZVPP-RI
def2-QZVPP-RI
def2-QZVPP-RI
def2-QZVPP-RI
def2-QZVPP-RI
def2-QZVPP-RI
def2-QZVPP-RI
def2-QZVPP-RI
def2-QZVPP-RI
def2-QZVPP-RI
nothing
nothing
nothing
nothing
nothing
nothing
nothing
nothing
nothing
nothing
nothing
nothing
nothing
nothing
nothing
nothing
nothing
nothing
nothing
nothing
nothing
nothing
nothing
nothing
nothing
nothing
nothing
nothing
nothing
nothing
nothing
nothing
nothing
nothing
nothing
nothing
nothing
nothing
nothing
nothing
nothing
nothing
nothing
nothing
nothing
nothing
nothing
nothing
nothing
nothing
nothing
nothing
nothing
nothing
nothing
nothing
nothing
nothing
nothing
nothing
nothing
nothing
nothing
nothing
nothing
nothing
nothing
nothing
nothing
nothing
nothing
nothing
nothing
nothing
nothing
nothing
nothing
nothing
nothing
nothing
nothing
nothing
nothing
nothing
nothing
nothing
nothing
nothing
nothing
nothing
nothing
nothing
nothing
nothing
nothing
nothing
nothing
nothing
nothing
nothing
nothing
nothing
nothing
nothing
nothing
nothing
nothing
nothing
nothing
nothing
nothing
nothing
nothing
nothing
nothing
nothing
nothing
nothing
nothing
nothing
nothing
nothing
nothing
nothing
nothing
nothing
nothing
nothing
nothing
nothing
nothing
nothing
nothing
nothing
nothing
nothing
nothing
nothing
nothing
nothing
nothing
nothing
nothing
nothing
nothing
nothing
nothing
nothing
nothing
nothing
nothing
nothing
nothing
nothing
nothing
nothing
nothing
nothing
nothing
nothing
nothing
nothing
nothing
nothing
nothing
nothing
nothing
nothing
nothing
nothing
nothing
nothing
nothing
nothing
nothing
nothing
nothing
nothing
nothing
nothing
nothing
nothing
nothing
nothing
nothing
nothing
nothing
nothing
nothing
nothing
nothing
nothing
nothing
nothing
nothing
nothing
nothing
nothing
nothing
nothing
nothing
nothing
nothing
nothing
nothing
nothing
nothing
nothing
nothing
nothing
nothing
nothing
nothing
nothing
nothing
nothing
nothing
nothing
nothing
nothing
nothing
nothing
nothing
nothing
nothing
nothing
nothing
nothing
nothing
nothing
nothing
nothing
nothing
nothing
nothing
nothing
nothing
nothing

ecp=special
none
none
none
none
none
none
none
none
none
none
none
none
none
none
none
none
none
none
none
none
none
none
none
none
none
none
none
none
none
none
none
none
none
none
none
none
none
none
none
none
none
none
none
none
none
none
none
none
none
none
none
none
none
none
none
ECP-12
ECP-12
ECP-12
ECP-12
ECP-12
ECP-12
ECP-12
ECP-12
ECP-12
ECP-12
ECP-12
ECP-12
ECP-12
ECP-12
ECP-12
ECP-12
ECP-12
ECP-12
ECP-12
ECP-12
ECP-12
ECP-12
ECP-12
ECP-12
ECP-12
ECP-12
ECP-12
ECP-12
ECP-12
ECP-12
ECP-12
ECP-12
ECP-12
ECP-12
ECP-12
ECP-12
ECP-12
ECP-12
ECP-12
ECP-12
ECP-12
ECP-12
ECP-12
ECP-12
ECP-12
ECP-12
ECP-12
ECP-12
ECP-12
ECP-12
ECP-12
ECP-12
ECP-12
ECP-12
ECP-12
ECP-12
ECP-12
ECP-12
ECP-12
ECP-12
ECP-12
ECP-12
ECP-12
ECP-12
ECP-12
ECP-12
ECP-12
ECP-12
ECP-12
ECP-12
ECP-12
ECP-12
ECP-12
ECP-12
ECP-12
ECP-12
ECP-12
ECP-12
ECP-12
ECP-12
ECP-12
ECP-12
ECP-12
ECP-12
ECP-12
ECP-12
ECP-12
ECP-12
ECP-12
ECP-12
ECP-12
ECP-12
ECP-12
ECP-12
ECP-12
ECP-12
ECP-12
ECP-12
ECP-12
ECP-12
ECP-12
ECP-12
ECP-12
ECP-12
ECP-12
ECP-12
ECP-12
ECP-12
ECP-12
ECP-12
ECP-12
ECP-12
ECP-12
ECP-12
ECP-12
ECP-12
ECP-12
ECP-12
ECP-12
ECP-12
ECP-12
ECP-12
ECP-12
ECP-12
ECP-12
ECP-12
ECP-12
ECP-12
ECP-12
ECP-12
ECP-12
ECP-12
ECP-12
ECP-12
ECP-12
ECP-12
ECP-12
ECP-12
ECP-12
ECP-12
ECP-12
ECP-12
ECP-12
ECP-12
ECP-12
ECP-12
ECP-12
ECP-12
ECP-12
ECP-12
ECP-12
ECP-12
ECP-12
ECP-12
ECP-12
ECP-12
ECP-12
ECP-12
ECP-12
ECP-12
ECP-12
ECP-12
ECP-12
ECP-12
ECP-12
ECP-12
ECP-12
ECP-12
ECP-12
ECP-12
ECP-12
ECP-12
ECP-12
ECP-12
ECP-12
ECP-12
ECP-12
ECP-12
ECP-12
ECP-12
ECP-12
ECP-12
ECP-12
ECP-12
ECP-12
ECP-12
ECP-12
ECP-12
ECP-12
ECP-12
ECP-12
ECP-12
ECP-12
ECP-12
ECP-12
ECP-12
ECP-12
ECP-12
ECP-12
ECP-12
ECP-12
ECP-12
ECP-12
ECP-12
ECP-12
ECP-12
ECP-12
ECP-12
ECP-12
ECP-12
ECP-12
ECP-12
ECP-12
ECP-12
ECP-12
ECP-12
ECP-12
ECP-12
ECP-12
ECP-12
ECP-12
ECP-12
ECP-12
ECP-12
ECP-12
ECP-12
ECP-12
ECP-12
ECP-12
ECP-12
ECP-12
ECP-12
ECP-12
ECP-12
ECP-12
ECP-12
ECP-12
ECP-12

unit=angs
geom=xyz
293
Mg17O38ECP238
O     0.00000000000    0.00000000000    0.00000000000
Mg   -2.10322620878    0.00000373010   -0.04129472389
Mg   -0.00000077520    2.10323371923   -0.04127288263
Mg    2.10323191950    0.00000373010   -0.04129472389
Mg   -0.00000077520   -2.10322440905   -0.04127288263
Mg    0.00000550943    0.00000833428   -2.12731743682
O    -2.10322913797    2.10323249699   -0.00000184672
O     2.10322899032    2.10323249699   -0.00000184672
O     2.10322899032   -2.10322563130   -0.00000184672
O    -2.10322913797   -2.10322563130   -0.00000184672
O    -2.10322637832    0.00000013655   -2.13228003377
O     0.00000097398    2.10323217703   -2.13226748721
O     2.10323174996    0.00000013655   -2.13228003377
O     0.00000097398   -2.10322595126   -2.13226748721
Mg   -2.10322347462    2.10323704324   -2.12732261718
Mg    2.10323465367    2.10323704324   -2.12732261718
Mg    2.10323465367   -2.10322108505   -2.12732261718
Mg   -2.10322347462   -2.10322108505   -2.12732261718
O    -4.20645812828    0.00000000000    0.00000000000
O     0.00000000000    4.20645812828    0.00000000000
O     4.20645812828    0.00000000000    0.00000000000
O     0.00000000000   -4.20645812828    0.00000000000
O     0.00000732117    0.00000897147   -4.23909984007
Mg   -4.20645890349    2.10323371923   -0.04127288263
Mg   -2.10322620878    4.20646185838   -0.04129472389
Mg    2.10323191950    4.20646185838   -0.04129472389
Mg    4.20645735308    2.10323371923   -0.04127288263
Mg    4.20645735308   -2.10322440905   -0.04127288263
Mg    2.10323191950   -4.20645439819   -0.04129472389
Mg   -2.10322620878   -4.20645439819   -0.04129472389
Mg   -4.20645890349   -2.10322440905   -0.04127288263
O    -4.20645715431    2.10323217703   -2.13226748721
O    -2.10322637832    4.20645826484   -2.13228003377
O     2.10323174996    4.20645826484   -2.13228003377
O     4.20645910226    2.10323217703   -2.13226748721
O     4.20645910226   -2.10322595126   -2.13226748721
O     2.10323174996   -4.20645799173   -2.13228003377
O    -2.10322637832   -4.20645799173   -2.13228003377
O    -4.20645715431   -2.10322595126   -2.13226748721
O    -2.10322174297    2.10323803561   -4.23909984007
O     2.10323638531    2.10323803561   -4.23909984007
O     2.10323638531   -2.10322009268   -4.23909984007
O    -2.10322174297   -2.10322009268   -4.23909984007
O    -4.20645812828    4.20645812828    0.00000000000
O     4.20645812828    4.20645812828    0.00000000000
O     4.20645812828   -4.20645812828    0.00000000000
O    -4.20645812828   -4.20645812828    0.00000000000
O    -6.30968726625    2.10323249699   -0.00000184672
O    -2.10322913797    6.30969062527   -0.00000184672
O     2.10322899032    6.30969062527   -0.00000184672
O     6.30968711860    2.10323249699   -0.00000184672
O     6.30968711860   -2.10322563130   -0.00000184672
O     2.10322899032   -6.30968375958   -0.00000184672
O    -2.10322913797   -6.30968375958   -0.00000184672
O    -6.30968726625   -2.10322563130   -0.00000184672
Mg   -4.20645261886    0.00000833428   -2.12731743682
Mg    0.00000550943    4.20646646256   -2.12731743682
Mg    4.20646363771    0.00000833428   -2.12731743682
Mg    0.00000550943   -4.20644979401   -2.12731743682
Mg   -2.10322174297    0.00000897147   -4.23909984007
Mg    0.00000732117    2.10323803561   -4.23909984007
Mg    2.10323638531    0.00000897147   -4.23909984007
Mg    0.00000732117   -2.10322009268   -4.23909984007
Mg   -6.30968433707    0.00000373010   -0.04129472389
Mg   -0.00000077520    6.30969184751   -0.04127288263
Mg    6.30969004779    0.00000373010   -0.04129472389
Mg   -0.00000077520   -6.30968253734   -0.04127288263
Mg   -4.20645261886    4.20646646256   -2.12731743682
Mg    4.20646363771    4.20646646256   -2.12731743682
Mg    4.20646363771   -4.20644979401   -2.12731743682
Mg   -4.20645261886   -4.20644979401   -2.12731743682
Mg   -4.20645080711    2.10323803561   -4.23909984007
Mg   -2.10322174297    4.20646709975   -4.23909984007
Mg    2.10323638531    4.20646709975   -4.23909984007
Mg    4.20646544946    2.10323803561   -4.23909984007
Mg    4.20646544946   -2.10322009268   -4.23909984007
Mg    2.10323638531   -4.20644915682   -4.23909984007
Mg   -2.10322174297   -4.20644915682   -4.23909984007
Mg   -4.20645080711   -2.10322009268   -4.23909984007
Mg    0.00000732117    0.00000897147   -6.34232890421
Mg   -6.30968160290    2.10323704324   -2.12732261718
Mg   -2.10322347462    6.30969517152   -2.12732261718
Mg    2.10323465367    6.30969517152   -2.12732261718
Mg    6.30969278195    2.10323704324   -2.12732261718
Mg    6.30969278195   -2.10322108505   -2.12732261718
Mg    2.10323465367   -6.30967921333   -2.12732261718
Mg   -2.10322347462   -6.30967921333   -2.12732261718
Mg   -6.30968160290   -2.10322108505   -2.12732261718
Mg   -2.10322174297    2.10323803561   -6.34232890421
Mg    2.10323638531    2.10323803561   -6.34232890421
Mg    2.10323638531   -2.10322009268   -6.34232890421
Mg   -2.10322174297   -2.10322009268   -6.34232890421
Mg   -6.30968433707    4.20646185838   -0.04129472389
Mg   -4.20645890349    6.30969184751   -0.04127288263
Mg    4.20645735308    6.30969184751   -0.04127288263
Mg    6.30969004779    4.20646185838   -0.04129472389
Mg    6.30969004779   -4.20645439819   -0.04129472389
Mg    4.20645735308   -6.30968253734   -0.04127288263
Mg   -4.20645890349   -6.30968253734   -0.04127288263
Mg   -6.30968433707   -4.20645439819   -0.04129472389
Mg   -6.30967987125    0.00000897147   -4.23909984007
Mg    0.00000732117    6.30969616389   -4.23909984007
Mg    6.30969451360    0.00000897147   -4.23909984007
Mg    0.00000732117   -6.30967822096   -4.23909984007
Mg   -4.20645080711    0.00000897147   -6.34232890421
Mg    0.00000732117    4.20646709975   -6.34232890421
Mg    4.20646544946    0.00000897147   -6.34232890421
Mg    0.00000732117   -4.20644915682   -6.34232890421
Mg   -8.41291703177    2.10323371923   -0.04127288263
Mg   -2.10322620878    8.41291998667   -0.04129472389
Mg    2.10323191950    8.41291998667   -0.04129472389
Mg    8.41291548137    2.10323371923   -0.04127288263
Mg    8.41291548137   -2.10322440905   -0.04127288263
Mg    2.10323191950   -8.41291252647   -0.04129472389
Mg   -2.10322620878   -8.41291252647   -0.04129472389
Mg   -8.41291703177   -2.10322440905   -0.04127288263
Mg   -8.41291074714    0.00000833428   -2.12731743682
Mg    0.00000550943    8.41292459085   -2.12731743682
Mg    8.41292176600    0.00000833428   -2.12731743682
Mg    0.00000550943   -8.41290792229   -2.12731743682
Mg   -6.30967987125    4.20646709975   -4.23909984007
Mg   -4.20645080711    6.30969616389   -4.23909984007
Mg    4.20646544946    6.30969616389   -4.23909984007
Mg    6.30969451360    4.20646709975   -4.23909984007
Mg    6.30969451360   -4.20644915682   -4.23909984007
Mg    4.20646544946   -6.30967822096   -4.23909984007
Mg   -4.20645080711   -6.30967822096   -4.23909984007
Mg   -6.30967987125   -4.20644915682   -4.23909984007
Mg   -4.20645080711    4.20646709975   -6.34232890421
Mg    4.20646544946    4.20646709975   -6.34232890421
Mg    4.20646544946   -4.20644915682   -6.34232890421
Mg   -4.20645080711   -4.20644915682   -6.34232890421
Mg   -2.10322174297    0.00000897147   -8.44555796836
Mg    0.00000732117    2.10323803561   -8.44555796836
Mg    2.10323638531    0.00000897147   -8.44555796836
Mg    0.00000732117   -2.10322009268   -8.44555796836
Mg   -6.30968160290    6.30969517152   -2.12732261718
Mg    6.30969278195    6.30969517152   -2.12732261718
Mg    6.30969278195   -6.30967921333   -2.12732261718
Mg   -6.30968160290   -6.30967921333   -2.12732261718
Mg   -6.30967987125    2.10323803561   -6.34232890421
Mg   -2.10322174297    6.30969616389   -6.34232890421
Mg    2.10323638531    6.30969616389   -6.34232890421
Mg    6.30969451360    2.10323803561   -6.34232890421
Mg    6.30969451360   -2.10322009268   -6.34232890421
Mg    2.10323638531   -6.30967822096   -6.34232890421
Mg   -2.10322174297   -6.30967822096   -6.34232890421
Mg   -6.30967987125   -2.10322009268   -6.34232890421
Mg   -8.41291074714    4.20646646256   -2.12731743682
Mg   -4.20645261886    8.41292459085   -2.12731743682
Mg    4.20646363771    8.41292459085   -2.12731743682
Mg    8.41292176600    4.20646646256   -2.12731743682
Mg    8.41292176600   -4.20644979401   -2.12731743682
Mg    4.20646363771   -8.41290792229   -2.12731743682
Mg   -4.20645261886   -8.41290792229   -2.12731743682
Mg   -8.41291074714   -4.20644979401   -2.12731743682
Mg   -8.41290893540    2.10323803561   -4.23909984007
Mg   -2.10322174297    8.41292522803   -4.23909984007
Mg    2.10323638531    8.41292522803   -4.23909984007
Mg    8.41292357774    2.10323803561   -4.23909984007
Mg    8.41292357774   -2.10322009268   -4.23909984007
Mg    2.10323638531   -8.41290728510   -4.23909984007
Mg   -2.10322174297   -8.41290728510   -4.23909984007
Mg   -8.41290893540   -2.10322009268   -4.23909984007
Mg   -4.20645080711    2.10323803561   -8.44555796836
Mg   -2.10322174297    4.20646709975   -8.44555796836
Mg    2.10323638531    4.20646709975   -8.44555796836
Mg    4.20646544946    2.10323803561   -8.44555796836
Mg    4.20646544946   -2.10322009268   -8.44555796836
Mg    2.10323638531   -4.20644915682   -8.44555796836
Mg   -2.10322174297   -4.20644915682   -8.44555796836
Mg   -4.20645080711   -2.10322009268   -8.44555796836
Mg  -10.51614246535    0.00000373010   -0.04129472389
Mg   -8.41291703177    6.30969184751   -0.04127288263
Mg   -6.30968433707    8.41291998667   -0.04129472389
Mg   -0.00000077520   10.51614997580   -0.04127288263
Mg    6.30969004779    8.41291998667   -0.04129472389
Mg    8.41291548137    6.30969184751   -0.04127288263
Mg   10.51614817607    0.00000373010   -0.04129472389
Mg    8.41291548137   -6.30968253734   -0.04127288263
Mg    6.30969004779   -8.41291252647   -0.04129472389
Mg   -0.00000077520  -10.51614066562   -0.04127288263
Mg   -6.30968433707   -8.41291252647   -0.04129472389
Mg   -8.41291703177   -6.30968253734   -0.04127288263
Mg   -8.41290893540    0.00000897147   -6.34232890421
Mg    0.00000732117    8.41292522803   -6.34232890421
Mg    8.41292357774    0.00000897147   -6.34232890421
Mg    0.00000732117   -8.41290728510   -6.34232890421
Mg   -6.30967987125    0.00000897147   -8.44555796836
Mg    0.00000732117    6.30969616389   -8.44555796836
Mg    6.30969451360    0.00000897147   -8.44555796836
Mg    0.00000732117   -6.30967822096   -8.44555796836
Mg    0.00000732117    0.00000897147  -10.54878703250
Mg  -10.51613973119    2.10323704324   -2.12732261718
Mg   -2.10322347462   10.51615329981   -2.12732261718
Mg    2.10323465367   10.51615329981   -2.12732261718
Mg   10.51615091024    2.10323704324   -2.12732261718
Mg   10.51615091024   -2.10322108505   -2.12732261718
Mg    2.10323465367  -10.51613734162   -2.12732261718
Mg   -2.10322347462  -10.51613734162   -2.12732261718
Mg  -10.51613973119   -2.10322108505   -2.12732261718
Mg   -6.30967987125    6.30969616389   -6.34232890421
Mg    6.30969451360    6.30969616389   -6.34232890421
Mg    6.30969451360   -6.30967822096   -6.34232890421
Mg   -6.30967987125   -6.30967822096   -6.34232890421
Mg   -2.10322174297    2.10323803561  -10.54878703250
Mg    2.10323638531    2.10323803561  -10.54878703250
Mg    2.10323638531   -2.10322009268  -10.54878703250
Mg   -2.10322174297   -2.10322009268  -10.54878703250
Mg  -10.51614246535    4.20646185838   -0.04129472389
Mg   -4.20645890349   10.51614997580   -0.04127288263
Mg    4.20645735308   10.51614997580   -0.04127288263
Mg   10.51614817607    4.20646185838   -0.04129472389
Mg   10.51614817607   -4.20645439819   -0.04129472389
Mg    4.20645735308  -10.51614066562   -0.04127288263
Mg   -4.20645890349  -10.51614066562   -0.04127288263
Mg  -10.51614246535   -4.20645439819   -0.04129472389
Mg  -10.51613799954    0.00000897147   -4.23909984007
Mg   -8.41290893540    6.30969616389   -4.23909984007
Mg   -6.30967987125    8.41292522803   -4.23909984007
Mg    0.00000732117   10.51615429218   -4.23909984007
Mg    6.30969451360    8.41292522803   -4.23909984007
Mg    8.41292357774    6.30969616389   -4.23909984007
Mg   10.51615264188    0.00000897147   -4.23909984007
Mg    8.41292357774   -6.30967822096   -4.23909984007
Mg    6.30969451360   -8.41290728510   -4.23909984007
Mg    0.00000732117  -10.51613634924   -4.23909984007
Mg   -6.30967987125   -8.41290728510   -4.23909984007
Mg   -8.41290893540   -6.30967822096   -4.23909984007
Mg   -8.41290893540    4.20646709975   -6.34232890421
Mg   -4.20645080711    8.41292522803   -6.34232890421
Mg    4.20646544946    8.41292522803   -6.34232890421
Mg    8.41292357774    4.20646709975   -6.34232890421
Mg    8.41292357774   -4.20644915682   -6.34232890421
Mg    4.20646544946   -8.41290728510   -6.34232890421
Mg   -4.20645080711   -8.41290728510   -6.34232890421
Mg   -8.41290893540   -4.20644915682   -6.34232890421
Mg   -6.30967987125    4.20646709975   -8.44555796836
Mg   -4.20645080711    6.30969616389   -8.44555796836
Mg    4.20646544946    6.30969616389   -8.44555796836
Mg    6.30969451360    4.20646709975   -8.44555796836
Mg    6.30969451360   -4.20644915682   -8.44555796836
Mg    4.20646544946   -6.30967822096   -8.44555796836
Mg   -4.20645080711   -6.30967822096   -8.44555796836
Mg   -6.30967987125   -4.20644915682   -8.44555796836
Mg   -4.20645080711    0.00000897147  -10.54878703250
Mg    0.00000732117    4.20646709975  -10.54878703250
Mg    4.20646544946    0.00000897147  -10.54878703250
Mg    0.00000732117   -4.20644915682  -10.54878703250
Mg   -8.41291074714    8.41292459085   -2.12731743682
Mg    8.41292176600    8.41292459085   -2.12731743682
Mg    8.41292176600   -8.41290792229   -2.12731743682
Mg   -8.41291074714   -8.41290792229   -2.12731743682
Mg  -10.51613799954    4.20646709975   -4.23909984007
Mg   -4.20645080711   10.51615429218   -4.23909984007
Mg    4.20646544946   10.51615429218   -4.23909984007
Mg   10.51615264188    4.20646709975   -4.23909984007
Mg   10.51615264188   -4.20644915682   -4.23909984007
Mg    4.20646544946  -10.51613634924   -4.23909984007
Mg   -4.20645080711  -10.51613634924   -4.23909984007
Mg  -10.51613799954   -4.20644915682   -4.23909984007
Mg   -4.20645080711    4.20646709975  -10.54878703250
Mg    4.20646544946    4.20646709975  -10.54878703250
Mg    4.20646544946   -4.20644915682  -10.54878703250
Mg   -4.20645080711   -4.20644915682  -10.54878703250
Mg  -10.51613973119    6.30969517152   -2.12732261718
Mg   -6.30968160290   10.51615329981   -2.12732261718
Mg    6.30969278195   10.51615329981   -2.12732261718
Mg   10.51615091024    6.30969517152   -2.12732261718
Mg   10.51615091024   -6.30967921333   -2.12732261718
Mg    6.30969278195  -10.51613734162   -2.12732261718
Mg   -6.30968160290  -10.51613734162   -2.12732261718
Mg  -10.51613973119   -6.30967921333   -2.12732261718
Mg  -12.61937516006    2.10323371923   -0.04127288263
Mg   -2.10322620878   12.61937811495   -0.04129472389
Mg    2.10323191950   12.61937811495   -0.04129472389
Mg   12.61937360965    2.10323371923   -0.04127288263
Mg   12.61937360965   -2.10322440905   -0.04127288263
Mg    2.10323191950  -12.61937065476   -0.04129472389
Mg   -2.10322620878  -12.61937065476   -0.04129472389
Mg  -12.61937516006   -2.10322440905   -0.04127288263
Mg  -12.61936887543    0.00000833428   -2.12731743682
Mg    0.00000550943   12.61938271913   -2.12731743682
Mg   12.61937989428    0.00000833428   -2.12731743682
Mg    0.00000550943  -12.61936605057   -2.12731743682
Mg  -12.61936887543    4.20646646256   -2.12731743682
Mg   -4.20645261886   12.61938271913   -2.12731743682
Mg    4.20646363771   12.61938271913   -2.12731743682
Mg   12.61937989428    4.20646646256   -2.12731743682
Mg   12.61937989428   -4.20644979401   -2.12731743682
Mg    4.20646363771  -12.61936605057   -2.12731743682
Mg   -4.20645261886  -12.61936605057   -2.12731743682
Mg  -12.61936887543   -4.20644979401   -2.12731743682

qmmm=Amber
pointcharges
10034
     -4.20645261886    0.00000833428   -2.12731743682    2.00000000000
      0.00000550943    4.20646646256   -2.12731743682    2.00000000000
      4.20646363771    0.00000833428   -2.12731743682    2.00000000000
      0.00000550943   -4.20644979401   -2.12731743682    2.00000000000
     -2.10322174297    0.00000897147   -4.23909984007    2.00000000000
      0.00000732117    2.10323803561   -4.23909984007    2.00000000000
      2.10323638531    0.00000897147   -4.23909984007    2.00000000000
      0.00000732117   -2.10322009268   -4.23909984007    2.00000000000
     -4.20645080711    0.00000897147   -4.23909984007   -2.00000000000
      0.00000732117    4.20646709975   -4.23909984007   -2.00000000000
      4.20646544946    0.00000897147   -4.23909984007   -2.00000000000
      0.00000732117   -4.20644915682   -4.23909984007   -2.00000000000
     -6.30968433707    0.00000373010   -0.04129472389    2.00000000000
     -0.00000077520    6.30969184751   -0.04127288263    2.00000000000
      6.30969004779    0.00000373010   -0.04129472389    2.00000000000
     -0.00000077520   -6.30968253734   -0.04127288263    2.00000000000
     -4.20645261886    4.20646646256   -2.12731743682    2.00000000000
      4.20646363771    4.20646646256   -2.12731743682    2.00000000000
      4.20646363771   -4.20644979401   -2.12731743682    2.00000000000
     -4.20645261886   -4.20644979401   -2.12731743682    2.00000000000
     -4.20645080711    2.10323803561   -4.23909984007    2.00000000000
     -2.10322174297    4.20646709975   -4.23909984007    2.00000000000
      2.10323638531    4.20646709975   -4.23909984007    2.00000000000
      4.20646544946    2.10323803561   -4.23909984007    2.00000000000
      4.20646544946   -2.10322009268   -4.23909984007    2.00000000000
      2.10323638531   -4.20644915682   -4.23909984007    2.00000000000
     -2.10322174297   -4.20644915682   -4.23909984007    2.00000000000
     -4.20645080711   -2.10322009268   -4.23909984007    2.00000000000
      0.00000732117    0.00000897147   -6.34232890421    2.00000000000
     -6.30968450660    0.00000013655   -2.13228003377   -2.00000000000
      0.00000097398    6.30969030531   -2.13226748721   -2.00000000000
      6.30968987825    0.00000013655   -2.13228003377   -2.00000000000
      0.00000097398   -6.30968407954   -2.13226748721   -2.00000000000
     -2.10322174297    0.00000897147   -6.34232890421   -2.00000000000
      0.00000732117    2.10323803561   -6.34232890421   -2.00000000000
      2.10323638531    0.00000897147   -6.34232890421   -2.00000000000
      0.00000732117   -2.10322009268   -6.34232890421   -2.00000000000
     -6.30968160290    2.10323704324   -2.12732261718    2.00000000000
     -2.10322347462    6.30969517152   -2.12732261718    2.00000000000
      2.10323465367    6.30969517152   -2.12732261718    2.00000000000
      6.30969278195    2.10323704324   -2.12732261718    2.00000000000
      6.30969278195   -2.10322108505   -2.12732261718    2.00000000000
      2.10323465367   -6.30967921333   -2.12732261718    2.00000000000
     -2.10322347462   -6.30967921333   -2.12732261718    2.00000000000
     -6.30968160290   -2.10322108505   -2.12732261718    2.00000000000
     -2.10322174297    2.10323803561   -6.34232890421    2.00000000000
      2.10323638531    2.10323803561   -6.34232890421    2.00000000000
      2.10323638531   -2.10322009268   -6.34232890421    2.00000000000
     -2.10322174297   -2.10322009268   -6.34232890421    2.00000000000
     -4.20645080711    4.20646709975   -4.23909984007   -2.00000000000
      4.20646544946    4.20646709975   -4.23909984007   -2.00000000000
      4.20646544946   -4.20644915682   -4.23909984007   -2.00000000000
     -4.20645080711   -4.20644915682   -4.23909984007   -2.00000000000
     -6.30968433707    4.20646185838   -0.04129472389    2.00000000000
     -4.20645890349    6.30969184751   -0.04127288263    2.00000000000
      4.20645735308    6.30969184751   -0.04127288263    2.00000000000
      6.30969004779    4.20646185838   -0.04129472389    2.00000000000
      6.30969004779   -4.20645439819   -0.04129472389    2.00000000000
      4.20645735308   -6.30968253734   -0.04127288263    2.00000000000
     -4.20645890349   -6.30968253734   -0.04127288263    2.00000000000
     -6.30968433707   -4.20645439819   -0.04129472389    2.00000000000
     -6.30967987125    0.00000897147   -4.23909984007    2.00000000000
      0.00000732117    6.30969616389   -4.23909984007    2.00000000000
      6.30969451360    0.00000897147   -4.23909984007    2.00000000000
      0.00000732117   -6.30967822096   -4.23909984007    2.00000000000
     -4.20645080711    0.00000897147   -6.34232890421    2.00000000000
      0.00000732117    4.20646709975   -6.34232890421    2.00000000000
      4.20646544946    0.00000897147   -6.34232890421    2.00000000000
      0.00000732117   -4.20644915682   -6.34232890421    2.00000000000
     -6.30968450660    4.20645826484   -2.13228003377   -2.00000000000
     -4.20645715431    6.30969030531   -2.13226748721   -2.00000000000
      4.20645910226    6.30969030531   -2.13226748721   -2.00000000000
      6.30968987825    4.20645826484   -2.13228003377   -2.00000000000
      6.30968987825   -4.20645799173   -2.13228003377   -2.00000000000
      4.20645910226   -6.30968407954   -2.13226748721   -2.00000000000
     -4.20645715431   -6.30968407954   -2.13226748721   -2.00000000000
     -6.30968450660   -4.20645799173   -2.13228003377   -2.00000000000
     -6.30967987125    2.10323803561   -4.23909984007   -2.00000000000
     -2.10322174297    6.30969616389   -4.23909984007   -2.00000000000
      2.10323638531    6.30969616389   -4.23909984007   -2.00000000000
      6.30969451360    2.10323803561   -4.23909984007   -2.00000000000
      6.30969451360   -2.10322009268   -4.23909984007   -2.00000000000
      2.10323638531   -6.30967822096   -4.23909984007   -2.00000000000
     -2.10322174297   -6.30967822096   -4.23909984007   -2.00000000000
     -6.30967987125   -2.10322009268   -4.23909984007   -2.00000000000
     -4.20645080711    2.10323803561   -6.34232890421   -2.00000000000
     -2.10322174297    4.20646709975   -6.34232890421   -2.00000000000
      2.10323638531    4.20646709975   -6.34232890421   -2.00000000000
      4.20646544946    2.10323803561   -6.34232890421   -2.00000000000
      4.20646544946   -2.10322009268   -6.34232890421   -2.00000000000
      2.10323638531   -4.20644915682   -6.34232890421   -2.00000000000
     -2.10322174297   -4.20644915682   -6.34232890421   -2.00000000000
     -4.20645080711   -2.10322009268   -6.34232890421   -2.00000000000
     -8.41291625657    0.00000000000    0.00000000000   -2.00000000000
      0.00000000000    8.41291625657    0.00000000000   -2.00000000000
      8.41291625657    0.00000000000    0.00000000000   -2.00000000000
      0.00000000000   -8.41291625657    0.00000000000   -2.00000000000
      0.00000732117    0.00000897147   -8.44555796836   -2.00000000000
     -8.41291703177    2.10323371923   -0.04127288263    2.00000000000
     -2.10322620878    8.41291998667   -0.04129472389    2.00000000000
      2.10323191950    8.41291998667   -0.04129472389    2.00000000000
      8.41291548137    2.10323371923   -0.04127288263    2.00000000000
      8.41291548137   -2.10322440905   -0.04127288263    2.00000000000
      2.10323191950   -8.41291252647   -0.04129472389    2.00000000000
     -2.10322620878   -8.41291252647   -0.04129472389    2.00000000000
     -8.41291703177   -2.10322440905   -0.04127288263    2.00000000000
     -8.41291074714    0.00000833428   -2.12731743682    2.00000000000
      0.00000550943    8.41292459085   -2.12731743682    2.00000000000
      8.41292176600    0.00000833428   -2.12731743682    2.00000000000
      0.00000550943   -8.41290792229   -2.12731743682    2.00000000000
     -6.30967987125    4.20646709975   -4.23909984007    2.00000000000
     -4.20645080711    6.30969616389   -4.23909984007    2.00000000000
      4.20646544946    6.30969616389   -4.23909984007    2.00000000000
      6.30969451360    4.20646709975   -4.23909984007    2.00000000000
      6.30969451360   -4.20644915682   -4.23909984007    2.00000000000
      4.20646544946   -6.30967822096   -4.23909984007    2.00000000000
     -4.20645080711   -6.30967822096   -4.23909984007    2.00000000000
     -6.30967987125   -4.20644915682   -4.23909984007    2.00000000000
     -4.20645080711    4.20646709975   -6.34232890421    2.00000000000
      4.20646544946    4.20646709975   -6.34232890421    2.00000000000
      4.20646544946   -4.20644915682   -6.34232890421    2.00000000000
     -4.20645080711   -4.20644915682   -6.34232890421    2.00000000000
     -2.10322174297    0.00000897147   -8.44555796836    2.00000000000
      0.00000732117    2.10323803561   -8.44555796836    2.00000000000
      2.10323638531    0.00000897147   -8.44555796836    2.00000000000
      0.00000732117   -2.10322009268   -8.44555796836    2.00000000000
     -6.30968726625    6.30969062527   -0.00000184672   -2.00000000000
      6.30968711860    6.30969062527   -0.00000184672   -2.00000000000
      6.30968711860   -6.30968375958   -0.00000184672   -2.00000000000
     -6.30968726625   -6.30968375958   -0.00000184672   -2.00000000000
     -8.41291528259    2.10323217703   -2.13226748721   -2.00000000000
     -2.10322637832    8.41291639312   -2.13228003377   -2.00000000000
      2.10323174996    8.41291639312   -2.13228003377   -2.00000000000
      8.41291723054    2.10323217703   -2.13226748721   -2.00000000000
      8.41291723054   -2.10322595126   -2.13226748721   -2.00000000000
      2.10323174996   -8.41291612001   -2.13228003377   -2.00000000000
     -2.10322637832   -8.41291612001   -2.13228003377   -2.00000000000
     -8.41291528259   -2.10322595126   -2.13226748721   -2.00000000000
     -6.30967987125    0.00000897147   -6.34232890421   -2.00000000000
      0.00000732117    6.30969616389   -6.34232890421   -2.00000000000
      6.30969451360    0.00000897147   -6.34232890421   -2.00000000000
      0.00000732117   -6.30967822096   -6.34232890421   -2.00000000000
     -2.10322174297    2.10323803561   -8.44555796836   -2.00000000000
      2.10323638531    2.10323803561   -8.44555796836   -2.00000000000
      2.10323638531   -2.10322009268   -8.44555796836   -2.00000000000
     -2.10322174297   -2.10322009268   -8.44555796836   -2.00000000000
     -6.30968160290    6.30969517152   -2.12732261718    2.00000000000
      6.30969278195    6.30969517152   -2.12732261718    2.00000000000
      6.30969278195   -6.30967921333   -2.12732261718    2.00000000000
     -6.30968160290   -6.30967921333   -2.12732261718    2.00000000000
     -6.30967987125    2.10323803561   -6.34232890421    2.00000000000
     -2.10322174297    6.30969616389   -6.34232890421    2.00000000000
      2.10323638531    6.30969616389   -6.34232890421    2.00000000000
      6.30969451360    2.10323803561   -6.34232890421    2.00000000000
      6.30969451360   -2.10322009268   -6.34232890421    2.00000000000
      2.10323638531   -6.30967822096   -6.34232890421    2.00000000000
     -2.10322174297   -6.30967822096   -6.34232890421    2.00000000000
     -6.30967987125   -2.10322009268   -6.34232890421    2.00000000000
     -8.41291625657    4.20645812828    0.00000000000   -2.00000000000
     -4.20645812828    8.41291625657    0.00000000000   -2.00000000000
      4.20645812828    8.41291625657    0.00000000000   -2.00000000000
      8.41291625657    4.20645812828    0.00000000000   -2.00000000000
      8.41291625657   -4.20645812828    0.00000000000   -2.00000000000
      4.20645812828   -8.41291625657    0.00000000000   -2.00000000000
     -4.20645812828   -8.41291625657    0.00000000000   -2.00000000000
     -8.41291625657   -4.20645812828    0.00000000000   -2.00000000000
     -8.41290893540    0.00000897147   -4.23909984007   -2.00000000000
      0.00000732117    8.41292522803   -4.23909984007   -2.00000000000
      8.41292357774    0.00000897147   -4.23909984007   -2.00000000000
      0.00000732117   -8.41290728510   -4.23909984007   -2.00000000000
     -4.20645080711    0.00000897147   -8.44555796836   -2.00000000000
      0.00000732117    4.20646709975   -8.44555796836   -2.00000000000
      4.20646544946    0.00000897147   -8.44555796836   -2.00000000000
      0.00000732117   -4.20644915682   -8.44555796836   -2.00000000000
     -8.41291074714    4.20646646256   -2.12731743682    2.00000000000
     -4.20645261886    8.41292459085   -2.12731743682    2.00000000000
      4.20646363771    8.41292459085   -2.12731743682    2.00000000000
      8.41292176600    4.20646646256   -2.12731743682    2.00000000000
      8.41292176600   -4.20644979401   -2.12731743682    2.00000000000
      4.20646363771   -8.41290792229   -2.12731743682    2.00000000000
     -4.20645261886   -8.41290792229   -2.12731743682    2.00000000000
     -8.41291074714   -4.20644979401   -2.12731743682    2.00000000000
     -8.41290893540    2.10323803561   -4.23909984007    2.00000000000
     -2.10322174297    8.41292522803   -4.23909984007    2.00000000000
      2.10323638531    8.41292522803   -4.23909984007    2.00000000000
      8.41292357774    2.10323803561   -4.23909984007    2.00000000000
      8.41292357774   -2.10322009268   -4.23909984007    2.00000000000
      2.10323638531   -8.41290728510   -4.23909984007    2.00000000000
     -2.10322174297   -8.41290728510   -4.23909984007    2.00000000000
     -8.41290893540   -2.10322009268   -4.23909984007    2.00000000000
     -4.20645080711    2.10323803561   -8.44555796836    2.00000000000
     -2.10322174297    4.20646709975   -8.44555796836    2.00000000000
      2.10323638531    4.20646709975   -8.44555796836    2.00000000000
      4.20646544946    2.10323803561   -8.44555796836    2.00000000000
      4.20646544946   -2.10322009268   -8.44555796836    2.00000000000
      2.10323638531   -4.20644915682   -8.44555796836    2.00000000000
     -2.10322174297   -4.20644915682   -8.44555796836    2.00000000000
     -4.20645080711   -2.10322009268   -8.44555796836    2.00000000000
     -6.30967987125    6.30969616389   -4.23909984007   -2.00000000000
      6.30969451360    6.30969616389   -4.23909984007   -2.00000000000
      6.30969451360   -6.30967822096   -4.23909984007   -2.00000000000
     -6.30967987125   -6.30967822096   -4.23909984007   -2.00000000000
     -6.30967987125    4.20646709975   -6.34232890421   -2.00000000000
     -4.20645080711    6.30969616389   -6.34232890421   -2.00000000000
      4.20646544946    6.30969616389   -6.34232890421   -2.00000000000
      6.30969451360    4.20646709975   -6.34232890421   -2.00000000000
      6.30969451360   -4.20644915682   -6.34232890421   -2.00000000000
      4.20646544946   -6.30967822096   -6.34232890421   -2.00000000000
     -4.20645080711   -6.30967822096   -6.34232890421   -2.00000000000
     -6.30967987125   -4.20644915682   -6.34232890421   -2.00000000000
     -8.41290893540    4.20646709975   -4.23909984007   -2.00000000000
     -4.20645080711    8.41292522803   -4.23909984007   -2.00000000000
      4.20646544946    8.41292522803   -4.23909984007   -2.00000000000
      8.41292357774    4.20646709975   -4.23909984007   -2.00000000000
      8.41292357774   -4.20644915682   -4.23909984007   -2.00000000000
      4.20646544946   -8.41290728510   -4.23909984007   -2.00000000000
     -4.20645080711   -8.41290728510   -4.23909984007   -2.00000000000
     -8.41290893540   -4.20644915682   -4.23909984007   -2.00000000000
     -4.20645080711    4.20646709975   -8.44555796836   -2.00000000000
      4.20646544946    4.20646709975   -8.44555796836   -2.00000000000
      4.20646544946   -4.20644915682   -8.44555796836   -2.00000000000
     -4.20645080711   -4.20644915682   -8.44555796836   -2.00000000000
    -10.51614246535    0.00000373010   -0.04129472389    2.00000000000
     -8.41291703177    6.30969184751   -0.04127288263    2.00000000000
     -6.30968433707    8.41291998667   -0.04129472389    2.00000000000
     -0.00000077520   10.51614997580   -0.04127288263    2.00000000000
      6.30969004779    8.41291998667   -0.04129472389    2.00000000000
      8.41291548137    6.30969184751   -0.04127288263    2.00000000000
     10.51614817607    0.00000373010   -0.04129472389    2.00000000000
      8.41291548137   -6.30968253734   -0.04127288263    2.00000000000
      6.30969004779   -8.41291252647   -0.04129472389    2.00000000000
     -0.00000077520  -10.51614066562   -0.04127288263    2.00000000000
     -6.30968433707   -8.41291252647   -0.04129472389    2.00000000000
     -8.41291703177   -6.30968253734   -0.04127288263    2.00000000000
     -8.41290893540    0.00000897147   -6.34232890421    2.00000000000
      0.00000732117    8.41292522803   -6.34232890421    2.00000000000
      8.41292357774    0.00000897147   -6.34232890421    2.00000000000
      0.00000732117   -8.41290728510   -6.34232890421    2.00000000000
     -6.30967987125    0.00000897147   -8.44555796836    2.00000000000
      0.00000732117    6.30969616389   -8.44555796836    2.00000000000
      6.30969451360    0.00000897147   -8.44555796836    2.00000000000
      0.00000732117   -6.30967822096   -8.44555796836    2.00000000000
      0.00000732117    0.00000897147  -10.54878703250    2.00000000000
    -10.51614539454    2.10323249699   -0.00000184672   -2.00000000000
     -2.10322913797   10.51614875355   -0.00000184672   -2.00000000000
      2.10322899032   10.51614875355   -0.00000184672   -2.00000000000
     10.51614524688    2.10323249699   -0.00000184672   -2.00000000000
     10.51614524688   -2.10322563130   -0.00000184672   -2.00000000000
      2.10322899032  -10.51614188787   -0.00000184672   -2.00000000000
     -2.10322913797  -10.51614188787   -0.00000184672   -2.00000000000
    -10.51614539454   -2.10322563130   -0.00000184672   -2.00000000000
    -10.51614263489    0.00000013655   -2.13228003377   -2.00000000000
     -8.41291528259    6.30969030531   -2.13226748721   -2.00000000000
     -6.30968450660    8.41291639312   -2.13228003377   -2.00000000000
      0.00000097398   10.51614843360   -2.13226748721   -2.00000000000
      6.30968987825    8.41291639312   -2.13228003377   -2.00000000000
      8.41291723054    6.30969030531   -2.13226748721   -2.00000000000
     10.51614800653    0.00000013655   -2.13228003377   -2.00000000000
      8.41291723054   -6.30968407954   -2.13226748721   -2.00000000000
      6.30968987825   -8.41291612001   -2.13228003377   -2.00000000000
      0.00000097398  -10.51614220782   -2.13226748721   -2.00000000000
     -6.30968450660   -8.41291612001   -2.13228003377   -2.00000000000
     -8.41291528259   -6.30968407954   -2.13226748721   -2.00000000000
     -8.41290893540    2.10323803561   -6.34232890421   -2.00000000000
     -2.10322174297    8.41292522803   -6.34232890421   -2.00000000000
      2.10323638531    8.41292522803   -6.34232890421   -2.00000000000
      8.41292357774    2.10323803561   -6.34232890421   -2.00000000000
      8.41292357774   -2.10322009268   -6.34232890421   -2.00000000000
      2.10323638531   -8.41290728510   -6.34232890421   -2.00000000000
     -2.10322174297   -8.41290728510   -6.34232890421   -2.00000000000
     -8.41290893540   -2.10322009268   -6.34232890421   -2.00000000000
     -6.30967987125    2.10323803561   -8.44555796836   -2.00000000000
     -2.10322174297    6.30969616389   -8.44555796836   -2.00000000000
      2.10323638531    6.30969616389   -8.44555796836   -2.00000000000
      6.30969451360    2.10323803561   -8.44555796836   -2.00000000000
      6.30969451360   -2.10322009268   -8.44555796836   -2.00000000000
      2.10323638531   -6.30967822096   -8.44555796836   -2.00000000000
     -2.10322174297   -6.30967822096   -8.44555796836   -2.00000000000
     -6.30967987125   -2.10322009268   -8.44555796836   -2.00000000000
     -2.10322174297    0.00000897147  -10.54878703250   -2.00000000000
      0.00000732117    2.10323803561  -10.54878703250   -2.00000000000
      2.10323638531    0.00000897147  -10.54878703250   -2.00000000000
      0.00000732117   -2.10322009268  -10.54878703250   -2.00000000000
    -10.51613973119    2.10323704324   -2.12732261718    2.00000000000
     -2.10322347462   10.51615329981   -2.12732261718    2.00000000000
      2.10323465367   10.51615329981   -2.12732261718    2.00000000000
     10.51615091024    2.10323704324   -2.12732261718    2.00000000000
     10.51615091024   -2.10322108505   -2.12732261718    2.00000000000
      2.10323465367  -10.51613734162   -2.12732261718    2.00000000000
     -2.10322347462  -10.51613734162   -2.12732261718    2.00000000000
    -10.51613973119   -2.10322108505   -2.12732261718    2.00000000000
     -6.30967987125    6.30969616389   -6.34232890421    2.00000000000
      6.30969451360    6.30969616389   -6.34232890421    2.00000000000
      6.30969451360   -6.30967822096   -6.34232890421    2.00000000000
     -6.30967987125   -6.30967822096   -6.34232890421    2.00000000000
     -2.10322174297    2.10323803561  -10.54878703250    2.00000000000
      2.10323638531    2.10323803561  -10.54878703250    2.00000000000
      2.10323638531   -2.10322009268  -10.54878703250    2.00000000000
     -2.10322174297   -2.10322009268  -10.54878703250    2.00000000000
    -10.51614246535    4.20646185838   -0.04129472389    2.00000000000
     -4.20645890349   10.51614997580   -0.04127288263    2.00000000000
      4.20645735308   10.51614997580   -0.04127288263    2.00000000000
     10.51614817607    4.20646185838   -0.04129472389    2.00000000000
     10.51614817607   -4.20645439819   -0.04129472389    2.00000000000
      4.20645735308  -10.51614066562   -0.04127288263    2.00000000000
     -4.20645890349  -10.51614066562   -0.04127288263    2.00000000000
    -10.51614246535   -4.20645439819   -0.04129472389    2.00000000000
    -10.51613799954    0.00000897147   -4.23909984007    2.00000000000
     -8.41290893540    6.30969616389   -4.23909984007    2.00000000000
     -6.30967987125    8.41292522803   -4.23909984007    2.00000000000
      0.00000732117   10.51615429218   -4.23909984007    2.00000000000
      6.30969451360    8.41292522803   -4.23909984007    2.00000000000
      8.41292357774    6.30969616389   -4.23909984007    2.00000000000
     10.51615264188    0.00000897147   -4.23909984007    2.00000000000
      8.41292357774   -6.30967822096   -4.23909984007    2.00000000000
      6.30969451360   -8.41290728510   -4.23909984007    2.00000000000
      0.00000732117  -10.51613634924   -4.23909984007    2.00000000000
     -6.30967987125   -8.41290728510   -4.23909984007    2.00000000000
     -8.41290893540   -6.30967822096   -4.23909984007    2.00000000000
     -8.41290893540    4.20646709975   -6.34232890421    2.00000000000
     -4.20645080711    8.41292522803   -6.34232890421    2.00000000000
      4.20646544946    8.41292522803   -6.34232890421    2.00000000000
      8.41292357774    4.20646709975   -6.34232890421    2.00000000000
      8.41292357774   -4.20644915682   -6.34232890421    2.00000000000
      4.20646544946   -8.41290728510   -6.34232890421    2.00000000000
     -4.20645080711   -8.41290728510   -6.34232890421    2.00000000000
     -8.41290893540   -4.20644915682   -6.34232890421    2.00000000000
     -6.30967987125    4.20646709975   -8.44555796836    2.00000000000
     -4.20645080711    6.30969616389   -8.44555796836    2.00000000000
      4.20646544946    6.30969616389   -8.44555796836    2.00000000000
      6.30969451360    4.20646709975   -8.44555796836    2.00000000000
      6.30969451360   -4.20644915682   -8.44555796836    2.00000000000
      4.20646544946   -6.30967822096   -8.44555796836    2.00000000000
     -4.20645080711   -6.30967822096   -8.44555796836    2.00000000000
     -6.30967987125   -4.20644915682   -8.44555796836    2.00000000000
     -4.20645080711    0.00000897147  -10.54878703250    2.00000000000
      0.00000732117    4.20646709975  -10.54878703250    2.00000000000
      4.20646544946    0.00000897147  -10.54878703250    2.00000000000
      0.00000732117   -4.20644915682  -10.54878703250    2.00000000000
    -10.51614263489    4.20645826484   -2.13228003377   -2.00000000000
     -4.20645715431   10.51614843360   -2.13226748721   -2.00000000000
      4.20645910226   10.51614843360   -2.13226748721   -2.00000000000
     10.51614800653    4.20645826484   -2.13228003377   -2.00000000000
     10.51614800653   -4.20645799173   -2.13228003377   -2.00000000000
      4.20645910226  -10.51614220782   -2.13226748721   -2.00000000000
     -4.20645715431  -10.51614220782   -2.13226748721   -2.00000000000
    -10.51614263489   -4.20645799173   -2.13228003377   -2.00000000000
    -10.51613799954    2.10323803561   -4.23909984007   -2.00000000000
     -2.10322174297   10.51615429218   -4.23909984007   -2.00000000000
      2.10323638531   10.51615429218   -4.23909984007   -2.00000000000
     10.51615264188    2.10323803561   -4.23909984007   -2.00000000000
     10.51615264188   -2.10322009268   -4.23909984007   -2.00000000000
      2.10323638531  -10.51613634924   -4.23909984007   -2.00000000000
     -2.10322174297  -10.51613634924   -4.23909984007   -2.00000000000
    -10.51613799954   -2.10322009268   -4.23909984007   -2.00000000000
     -4.20645080711    2.10323803561  -10.54878703250   -2.00000000000
     -2.10322174297    4.20646709975  -10.54878703250   -2.00000000000
      2.10323638531    4.20646709975  -10.54878703250   -2.00000000000
      4.20646544946    2.10323803561  -10.54878703250   -2.00000000000
      4.20646544946   -2.10322009268  -10.54878703250   -2.00000000000
      2.10323638531   -4.20644915682  -10.54878703250   -2.00000000000
     -2.10322174297   -4.20644915682  -10.54878703250   -2.00000000000
     -4.20645080711   -2.10322009268  -10.54878703250   -2.00000000000
     -8.41291625657    8.41291625657    0.00000000000   -2.00000000000
      8.41291625657    8.41291625657    0.00000000000   -2.00000000000
      8.41291625657   -8.41291625657    0.00000000000   -2.00000000000
     -8.41291625657   -8.41291625657    0.00000000000   -2.00000000000
     -8.41291074714    8.41292459085   -2.12731743682    2.00000000000
      8.41292176600    8.41292459085   -2.12731743682    2.00000000000
      8.41292176600   -8.41290792229   -2.12731743682    2.00000000000
     -8.41291074714   -8.41290792229   -2.12731743682    2.00000000000
    -10.51613799954    4.20646709975   -4.23909984007    2.00000000000
     -4.20645080711   10.51615429218   -4.23909984007    2.00000000000
      4.20646544946   10.51615429218   -4.23909984007    2.00000000000
     10.51615264188    4.20646709975   -4.23909984007    2.00000000000
     10.51615264188   -4.20644915682   -4.23909984007    2.00000000000
      4.20646544946  -10.51613634924   -4.23909984007    2.00000000000
     -4.20645080711  -10.51613634924   -4.23909984007    2.00000000000
    -10.51613799954   -4.20644915682   -4.23909984007    2.00000000000
     -4.20645080711    4.20646709975  -10.54878703250    2.00000000000
      4.20646544946    4.20646709975  -10.54878703250    2.00000000000
      4.20646544946   -4.20644915682  -10.54878703250    2.00000000000
     -4.20645080711   -4.20644915682  -10.54878703250    2.00000000000
    -10.51614539454    6.30969062527   -0.00000184672   -2.00000000000
     -6.30968726625   10.51614875355   -0.00000184672   -2.00000000000
      6.30968711860   10.51614875355   -0.00000184672   -2.00000000000
     10.51614524688    6.30969062527   -0.00000184672   -2.00000000000
     10.51614524688   -6.30968375958   -0.00000184672   -2.00000000000
      6.30968711860  -10.51614188787   -0.00000184672   -2.00000000000
     -6.30968726625  -10.51614188787   -0.00000184672   -2.00000000000
    -10.51614539454   -6.30968375958   -0.00000184672   -2.00000000000
    -10.51613973119    6.30969517152   -2.12732261718    2.00000000000
     -6.30968160290   10.51615329981   -2.12732261718    2.00000000000
      6.30969278195   10.51615329981   -2.12732261718    2.00000000000
     10.51615091024    6.30969517152   -2.12732261718    2.00000000000
     10.51615091024   -6.30967921333   -2.12732261718    2.00000000000
      6.30969278195  -10.51613734162   -2.12732261718    2.00000000000
     -6.30968160290  -10.51613734162   -2.12732261718    2.00000000000
    -10.51613973119   -6.30967921333   -2.12732261718    2.00000000000
    -12.61937438485    0.00000000000    0.00000000000   -2.00000000000
      0.00000000000   12.61937438485    0.00000000000   -2.00000000000
     12.61937438485    0.00000000000    0.00000000000   -2.00000000000
      0.00000000000  -12.61937438485    0.00000000000   -2.00000000000
    -12.61937516006    2.10323371923   -0.04127288263    2.00000000000
     -2.10322620878   12.61937811495   -0.04129472389    2.00000000000
      2.10323191950   12.61937811495   -0.04129472389    2.00000000000
     12.61937360965    2.10323371923   -0.04127288263    2.00000000000
     12.61937360965   -2.10322440905   -0.04127288263    2.00000000000
      2.10323191950  -12.61937065476   -0.04129472389    2.00000000000
     -2.10322620878  -12.61937065476   -0.04129472389    2.00000000000
    -12.61937516006   -2.10322440905   -0.04127288263    2.00000000000
    -12.61936887543    0.00000833428   -2.12731743682    2.00000000000
      0.00000550943   12.61938271913   -2.12731743682    2.00000000000
     12.61937989428    0.00000833428   -2.12731743682    2.00000000000
      0.00000550943  -12.61936605057   -2.12731743682    2.00000000000
    -12.61937341088    2.10323217703   -2.13226748721   -2.00000000000
     -2.10322637832   12.61937452141   -2.13228003377   -2.00000000000
      2.10323174996   12.61937452141   -2.13228003377   -2.00000000000
     12.61937535883    2.10323217703   -2.13226748721   -2.00000000000
     12.61937535883   -2.10322595126   -2.13226748721   -2.00000000000
      2.10323174996  -12.61937424830   -2.13228003377   -2.00000000000
     -2.10322637832  -12.61937424830   -2.13228003377   -2.00000000000
    -12.61937341088   -2.10322595126   -2.13226748721   -2.00000000000
    -12.61937438485    4.20645812828    0.00000000000   -2.00000000000
     -4.20645812828   12.61937438485    0.00000000000   -2.00000000000
      4.20645812828   12.61937438485    0.00000000000   -2.00000000000
     12.61937438485    4.20645812828    0.00000000000   -2.00000000000
     12.61937438485   -4.20645812828    0.00000000000   -2.00000000000
      4.20645812828  -12.61937438485    0.00000000000   -2.00000000000
     -4.20645812828  -12.61937438485    0.00000000000   -2.00000000000
    -12.61937438485   -4.20645812828    0.00000000000   -2.00000000000
    -12.61936887543    4.20646646256   -2.12731743682    2.00000000000
     -4.20645261886   12.61938271913   -2.12731743682    2.00000000000
      4.20646363771   12.61938271913   -2.12731743682    2.00000000000
     12.61937989428    4.20646646256   -2.12731743682    2.00000000000
     12.61937989428   -4.20644979401   -2.12731743682    2.00000000000
      4.20646363771  -12.61936605057   -2.12731743682    2.00000000000
     -4.20645261886  -12.61936605057   -2.12731743682    2.00000000000
    -12.61936887543   -4.20644979401   -2.12731743682    2.00000000000
     -8.41290893540    0.00000897147   -8.44555796836   -2.00000000000
      0.00000732117    8.41292522803   -8.44555796836   -2.00000000000
      8.41292357774    0.00000897147   -8.44555796836   -2.00000000000
      0.00000732117   -8.41290728510   -8.44555796836   -2.00000000000
     -8.41290893540    2.10323803561   -8.44555796836    2.00000000000
     -2.10322174297    8.41292522803   -8.44555796836    2.00000000000
      2.10323638531    8.41292522803   -8.44555796836    2.00000000000
      8.41292357774    2.10323803561   -8.44555796836    2.00000000000
      8.41292357774   -2.10322009268   -8.44555796836    2.00000000000
      2.10323638531   -8.41290728510   -8.44555796836    2.00000000000
     -2.10322174297   -8.41290728510   -8.44555796836    2.00000000000
     -8.41290893540   -2.10322009268   -8.44555796836    2.00000000000
    -10.51613799954    0.00000897147   -6.34232890421   -2.00000000000
     -8.41290893540    6.30969616389   -6.34232890421   -2.00000000000
     -6.30967987125    8.41292522803   -6.34232890421   -2.00000000000
      0.00000732117   10.51615429218   -6.34232890421   -2.00000000000
      6.30969451360    8.41292522803   -6.34232890421   -2.00000000000
      8.41292357774    6.30969616389   -6.34232890421   -2.00000000000
     10.51615264188    0.00000897147   -6.34232890421   -2.00000000000
      8.41292357774   -6.30967822096   -6.34232890421   -2.00000000000
      6.30969451360   -8.41290728510   -6.34232890421   -2.00000000000
      0.00000732117  -10.51613634924   -6.34232890421   -2.00000000000
     -6.30967987125   -8.41290728510   -6.34232890421   -2.00000000000
     -8.41290893540   -6.30967822096   -6.34232890421   -2.00000000000
     -6.30967987125    6.30969616389   -8.44555796836   -2.00000000000
      6.30969451360    6.30969616389   -8.44555796836   -2.00000000000
      6.30969451360   -6.30967822096   -8.44555796836   -2.00000000000
     -6.30967987125   -6.30967822096   -8.44555796836   -2.00000000000
     -6.30967987125    0.00000897147  -10.54878703250   -2.00000000000
      0.00000732117    6.30969616389  -10.54878703250   -2.00000000000
      6.30969451360    0.00000897147  -10.54878703250   -2.00000000000
      0.00000732117   -6.30967822096  -10.54878703250   -2.00000000000
    -10.51613799954    2.10323803561   -6.34232890421    2.00000000000
     -2.10322174297   10.51615429218   -6.34232890421    2.00000000000
      2.10323638531   10.51615429218   -6.34232890421    2.00000000000
     10.51615264188    2.10323803561   -6.34232890421    2.00000000000
     10.51615264188   -2.10322009268   -6.34232890421    2.00000000000
      2.10323638531  -10.51613634924   -6.34232890421    2.00000000000
     -2.10322174297  -10.51613634924   -6.34232890421    2.00000000000
    -10.51613799954   -2.10322009268   -6.34232890421    2.00000000000
     -6.30967987125    2.10323803561  -10.54878703250    2.00000000000
     -2.10322174297    6.30969616389  -10.54878703250    2.00000000000
      2.10323638531    6.30969616389  -10.54878703250    2.00000000000
      6.30969451360    2.10323803561  -10.54878703250    2.00000000000
      6.30969451360   -2.10322009268  -10.54878703250    2.00000000000
      2.10323638531   -6.30967822096  -10.54878703250    2.00000000000
     -2.10322174297   -6.30967822096  -10.54878703250    2.00000000000
     -6.30967987125   -2.10322009268  -10.54878703250    2.00000000000
     -8.41290893540    8.41292522803   -4.23909984007   -2.00000000000
      8.41292357774    8.41292522803   -4.23909984007   -2.00000000000
      8.41292357774   -8.41290728510   -4.23909984007   -2.00000000000
     -8.41290893540   -8.41290728510   -4.23909984007   -2.00000000000
     -8.41290893540    4.20646709975   -8.44555796836   -2.00000000000
     -4.20645080711    8.41292522803   -8.44555796836   -2.00000000000
      4.20646544946    8.41292522803   -8.44555796836   -2.00000000000
      8.41292357774    4.20646709975   -8.44555796836   -2.00000000000
      8.41292357774   -4.20644915682   -8.44555796836   -2.00000000000
      4.20646544946   -8.41290728510   -8.44555796836   -2.00000000000
     -4.20645080711   -8.41290728510   -8.44555796836   -2.00000000000
     -8.41290893540   -4.20644915682   -8.44555796836   -2.00000000000
      0.00000732117    0.00000897147  -12.65201609664   -2.00000000000
     -2.10322174297    0.00000897147  -12.65201609664    2.00000000000
      0.00000732117    2.10323803561  -12.65201609664    2.00000000000
      2.10323638531    0.00000897147  -12.65201609664    2.00000000000
      0.00000732117   -2.10322009268  -12.65201609664    2.00000000000
    -10.51613799954    6.30969616389   -4.23909984007   -2.00000000000
     -6.30967987125   10.51615429218   -4.23909984007   -2.00000000000
      6.30969451360   10.51615429218   -4.23909984007   -2.00000000000
     10.51615264188    6.30969616389   -4.23909984007   -2.00000000000
     10.51615264188   -6.30967822096   -4.23909984007   -2.00000000000
      6.30969451360  -10.51613634924   -4.23909984007   -2.00000000000
     -6.30967987125  -10.51613634924   -4.23909984007   -2.00000000000
    -10.51613799954   -6.30967822096   -4.23909984007   -2.00000000000
    -10.51613799954    4.20646709975   -6.34232890421   -2.00000000000
     -4.20645080711   10.51615429218   -6.34232890421   -2.00000000000
      4.20646544946   10.51615429218   -6.34232890421   -2.00000000000
     10.51615264188    4.20646709975   -6.34232890421   -2.00000000000
     10.51615264188   -4.20644915682   -6.34232890421   -2.00000000000
      4.20646544946  -10.51613634924   -6.34232890421   -2.00000000000
     -4.20645080711  -10.51613634924   -6.34232890421   -2.00000000000
    -10.51613799954   -4.20644915682   -6.34232890421   -2.00000000000
     -6.30967987125    4.20646709975  -10.54878703250   -2.00000000000
     -4.20645080711    6.30969616389  -10.54878703250   -2.00000000000
      4.20646544946    6.30969616389  -10.54878703250   -2.00000000000
      6.30969451360    4.20646709975  -10.54878703250   -2.00000000000
      6.30969451360   -4.20644915682  -10.54878703250   -2.00000000000
      4.20646544946   -6.30967822096  -10.54878703250   -2.00000000000
     -4.20645080711   -6.30967822096  -10.54878703250   -2.00000000000
     -6.30967987125   -4.20644915682  -10.54878703250   -2.00000000000
     -2.10322174297    2.10323803561  -12.65201609664   -2.00000000000
      2.10323638531    2.10323803561  -12.65201609664   -2.00000000000
      2.10323638531   -2.10322009268  -12.65201609664   -2.00000000000
     -2.10322174297   -2.10322009268  -12.65201609664   -2.00000000000
    -12.61936706368    0.00000897147   -4.23909984007   -2.00000000000
      0.00000732117   12.61938335632   -4.23909984007   -2.00000000000
     12.61938170602    0.00000897147   -4.23909984007   -2.00000000000
      0.00000732117  -12.61936541339   -4.23909984007   -2.00000000000
     -4.20645080711    0.00000897147  -12.65201609664   -2.00000000000
      0.00000732117    4.20646709975  -12.65201609664   -2.00000000000
      4.20646544946    0.00000897147  -12.65201609664   -2.00000000000
      0.00000732117   -4.20644915682  -12.65201609664   -2.00000000000
    -10.51614246535    8.41291998667   -0.04129472389    2.00000000000
     -8.41291703177   10.51614997580   -0.04127288263    2.00000000000
      8.41291548137   10.51614997580   -0.04127288263    2.00000000000
     10.51614817607    8.41291998667   -0.04129472389    2.00000000000
     10.51614817607   -8.41291252647   -0.04129472389    2.00000000000
      8.41291548137  -10.51614066562   -0.04127288263    2.00000000000
     -8.41291703177  -10.51614066562   -0.04127288263    2.00000000000
    -10.51614246535   -8.41291252647   -0.04129472389    2.00000000000
    -12.61936706368    2.10323803561   -4.23909984007    2.00000000000
     -2.10322174297   12.61938335632   -4.23909984007    2.00000000000
      2.10323638531   12.61938335632   -4.23909984007    2.00000000000
     12.61938170602    2.10323803561   -4.23909984007    2.00000000000
     12.61938170602   -2.10322009268   -4.23909984007    2.00000000000
      2.10323638531  -12.61936541339   -4.23909984007    2.00000000000
     -2.10322174297  -12.61936541339   -4.23909984007    2.00000000000
    -12.61936706368   -2.10322009268   -4.23909984007    2.00000000000
     -8.41290893540    8.41292522803   -6.34232890421    2.00000000000
      8.41292357774    8.41292522803   -6.34232890421    2.00000000000
      8.41292357774   -8.41290728510   -6.34232890421    2.00000000000
     -8.41290893540   -8.41290728510   -6.34232890421    2.00000000000
    -10.51613799954    0.00000897147   -8.44555796836    2.00000000000
     -8.41290893540    6.30969616389   -8.44555796836    2.00000000000
     -6.30967987125    8.41292522803   -8.44555796836    2.00000000000
      0.00000732117   10.51615429218   -8.44555796836    2.00000000000
      6.30969451360    8.41292522803   -8.44555796836    2.00000000000
      8.41292357774    6.30969616389   -8.44555796836    2.00000000000
     10.51615264188    0.00000897147   -8.44555796836    2.00000000000
      8.41292357774   -6.30967822096   -8.44555796836    2.00000000000
      6.30969451360   -8.41290728510   -8.44555796836    2.00000000000
      0.00000732117  -10.51613634924   -8.44555796836    2.00000000000
     -6.30967987125   -8.41290728510   -8.44555796836    2.00000000000
     -8.41290893540   -6.30967822096   -8.44555796836    2.00000000000
     -8.41290893540    0.00000897147  -10.54878703250    2.00000000000
      0.00000732117    8.41292522803  -10.54878703250    2.00000000000
      8.41292357774    0.00000897147  -10.54878703250    2.00000000000
      0.00000732117   -8.41290728510  -10.54878703250    2.00000000000
     -4.20645080711    2.10323803561  -12.65201609664    2.00000000000
     -2.10322174297    4.20646709975  -12.65201609664    2.00000000000
      2.10323638531    4.20646709975  -12.65201609664    2.00000000000
      4.20646544946    2.10323803561  -12.65201609664    2.00000000000
      4.20646544946   -2.10322009268  -12.65201609664    2.00000000000
      2.10323638531   -4.20644915682  -12.65201609664    2.00000000000
     -2.10322174297   -4.20644915682  -12.65201609664    2.00000000000
     -4.20645080711   -2.10322009268  -12.65201609664    2.00000000000
    -10.51614263489    8.41291639312   -2.13228003377   -2.00000000000
     -8.41291528259   10.51614843360   -2.13226748721   -2.00000000000
      8.41291723054   10.51614843360   -2.13226748721   -2.00000000000
     10.51614800653    8.41291639312   -2.13228003377   -2.00000000000
     10.51614800653   -8.41291612001   -2.13228003377   -2.00000000000
      8.41291723054  -10.51614220782   -2.13226748721   -2.00000000000
     -8.41291528259  -10.51614220782   -2.13226748721   -2.00000000000
    -10.51614263489   -8.41291612001   -2.13228003377   -2.00000000000
    -10.51613799954    2.10323803561   -8.44555796836   -2.00000000000
     -2.10322174297   10.51615429218   -8.44555796836   -2.00000000000
      2.10323638531   10.51615429218   -8.44555796836   -2.00000000000
     10.51615264188    2.10323803561   -8.44555796836   -2.00000000000
     10.51615264188   -2.10322009268   -8.44555796836   -2.00000000000
      2.10323638531  -10.51613634924   -8.44555796836   -2.00000000000
     -2.10322174297  -10.51613634924   -8.44555796836   -2.00000000000
    -10.51613799954   -2.10322009268   -8.44555796836   -2.00000000000
     -8.41290893540    2.10323803561  -10.54878703250   -2.00000000000
     -2.10322174297    8.41292522803  -10.54878703250   -2.00000000000
      2.10323638531    8.41292522803  -10.54878703250   -2.00000000000
      8.41292357774    2.10323803561  -10.54878703250   -2.00000000000
      8.41292357774   -2.10322009268  -10.54878703250   -2.00000000000
      2.10323638531   -8.41290728510  -10.54878703250   -2.00000000000
     -2.10322174297   -8.41290728510  -10.54878703250   -2.00000000000
     -8.41290893540   -2.10322009268  -10.54878703250   -2.00000000000
    -10.51613799954    6.30969616389   -6.34232890421    2.00000000000
     -6.30967987125   10.51615429218   -6.34232890421    2.00000000000
      6.30969451360   10.51615429218   -6.34232890421    2.00000000000
     10.51615264188    6.30969616389   -6.34232890421    2.00000000000
     10.51615264188   -6.30967822096   -6.34232890421    2.00000000000
      6.30969451360  -10.51613634924   -6.34232890421    2.00000000000
     -6.30967987125  -10.51613634924   -6.34232890421    2.00000000000
    -10.51613799954   -6.30967822096   -6.34232890421    2.00000000000
     -6.30967987125    6.30969616389  -10.54878703250    2.00000000000
      6.30969451360    6.30969616389  -10.54878703250    2.00000000000
      6.30969451360   -6.30967822096  -10.54878703250    2.00000000000
     -6.30967987125   -6.30967822096  -10.54878703250    2.00000000000
    -12.61936706368    4.20646709975   -4.23909984007   -2.00000000000
     -4.20645080711   12.61938335632   -4.23909984007   -2.00000000000
      4.20646544946   12.61938335632   -4.23909984007   -2.00000000000
     12.61938170602    4.20646709975   -4.23909984007   -2.00000000000
     12.61938170602   -4.20644915682   -4.23909984007   -2.00000000000
      4.20646544946  -12.61936541339   -4.23909984007   -2.00000000000
     -4.20645080711  -12.61936541339   -4.23909984007   -2.00000000000
    -12.61936706368   -4.20644915682   -4.23909984007   -2.00000000000
     -4.20645080711    4.20646709975  -12.65201609664   -2.00000000000
      4.20646544946    4.20646709975  -12.65201609664   -2.00000000000
      4.20646544946   -4.20644915682  -12.65201609664   -2.00000000000
     -4.20645080711   -4.20644915682  -12.65201609664   -2.00000000000
    -12.61937516006    6.30969184751   -0.04127288263    2.00000000000
     -6.30968433707   12.61937811495   -0.04129472389    2.00000000000
      6.30969004779   12.61937811495   -0.04129472389    2.00000000000
     12.61937360965    6.30969184751   -0.04127288263    2.00000000000
     12.61937360965   -6.30968253734   -0.04127288263    2.00000000000
      6.30969004779  -12.61937065476   -0.04129472389    2.00000000000
     -6.30968433707  -12.61937065476   -0.04129472389    2.00000000000
    -12.61937516006   -6.30968253734   -0.04127288263    2.00000000000
    -10.51613799954    8.41292522803   -4.23909984007    2.00000000000
     -8.41290893540   10.51615429218   -4.23909984007    2.00000000000
      8.41292357774   10.51615429218   -4.23909984007    2.00000000000
     10.51615264188    8.41292522803   -4.23909984007    2.00000000000
     10.51615264188   -8.41290728510   -4.23909984007    2.00000000000
      8.41292357774  -10.51613634924   -4.23909984007    2.00000000000
     -8.41290893540  -10.51613634924   -4.23909984007    2.00000000000
    -10.51613799954   -8.41290728510   -4.23909984007    2.00000000000
    -12.61936706368    0.00000897147   -6.34232890421    2.00000000000
      0.00000732117   12.61938335632   -6.34232890421    2.00000000000
     12.61938170602    0.00000897147   -6.34232890421    2.00000000000
      0.00000732117  -12.61936541339   -6.34232890421    2.00000000000
    -10.51613799954    4.20646709975   -8.44555796836    2.00000000000
     -4.20645080711   10.51615429218   -8.44555796836    2.00000000000
      4.20646544946   10.51615429218   -8.44555796836    2.00000000000
     10.51615264188    4.20646709975   -8.44555796836    2.00000000000
     10.51615264188   -4.20644915682   -8.44555796836    2.00000000000
      4.20646544946  -10.51613634924   -8.44555796836    2.00000000000
     -4.20645080711  -10.51613634924   -8.44555796836    2.00000000000
    -10.51613799954   -4.20644915682   -8.44555796836    2.00000000000
     -8.41290893540    4.20646709975  -10.54878703250    2.00000000000
     -4.20645080711    8.41292522803  -10.54878703250    2.00000000000
      4.20646544946    8.41292522803  -10.54878703250    2.00000000000
      8.41292357774    4.20646709975  -10.54878703250    2.00000000000
      8.41292357774   -4.20644915682  -10.54878703250    2.00000000000
      4.20646544946   -8.41290728510  -10.54878703250    2.00000000000
     -4.20645080711   -8.41290728510  -10.54878703250    2.00000000000
     -8.41290893540   -4.20644915682  -10.54878703250    2.00000000000
     -6.30967987125    0.00000897147  -12.65201609664    2.00000000000
      0.00000732117    6.30969616389  -12.65201609664    2.00000000000
      6.30969451360    0.00000897147  -12.65201609664    2.00000000000
      0.00000732117   -6.30967822096  -12.65201609664    2.00000000000
    -12.61937341088    6.30969030531   -2.13226748721   -2.00000000000
     -6.30968450660   12.61937452141   -2.13228003377   -2.00000000000
      6.30968987825   12.61937452141   -2.13228003377   -2.00000000000
     12.61937535883    6.30969030531   -2.13226748721   -2.00000000000
     12.61937535883   -6.30968407954   -2.13226748721   -2.00000000000
      6.30968987825  -12.61937424830   -2.13228003377   -2.00000000000
     -6.30968450660  -12.61937424830   -2.13228003377   -2.00000000000
    -12.61937341088   -6.30968407954   -2.13226748721   -2.00000000000
    -12.61936706368    2.10323803561   -6.34232890421   -2.00000000000
     -2.10322174297   12.61938335632   -6.34232890421   -2.00000000000
      2.10323638531   12.61938335632   -6.34232890421   -2.00000000000
     12.61938170602    2.10323803561   -6.34232890421   -2.00000000000
     12.61938170602   -2.10322009268   -6.34232890421   -2.00000000000
      2.10323638531  -12.61936541339   -6.34232890421   -2.00000000000
     -2.10322174297  -12.61936541339   -6.34232890421   -2.00000000000
    -12.61936706368   -2.10322009268   -6.34232890421   -2.00000000000
     -6.30967987125    2.10323803561  -12.65201609664   -2.00000000000
     -2.10322174297    6.30969616389  -12.65201609664   -2.00000000000
      2.10323638531    6.30969616389  -12.65201609664   -2.00000000000
      6.30969451360    2.10323803561  -12.65201609664   -2.00000000000
      6.30969451360   -2.10322009268  -12.65201609664   -2.00000000000
      2.10323638531   -6.30967822096  -12.65201609664   -2.00000000000
     -2.10322174297   -6.30967822096  -12.65201609664   -2.00000000000
     -6.30967987125   -2.10322009268  -12.65201609664   -2.00000000000
     -8.41290893540    8.41292522803   -8.44555796836   -2.00000000000
      8.41292357774    8.41292522803   -8.44555796836   -2.00000000000
      8.41292357774   -8.41290728510   -8.44555796836   -2.00000000000
     -8.41290893540   -8.41290728510   -8.44555796836   -2.00000000000
    -14.72260059364    0.00000373010   -0.04129472389    2.00000000000
     -0.00000077520   14.72260810408   -0.04127288263    2.00000000000
     14.72260630435    0.00000373010   -0.04129472389    2.00000000000
     -0.00000077520  -14.72259879391   -0.04127288263    2.00000000000
    -12.61936706368    6.30969616389   -4.23909984007    2.00000000000
     -6.30967987125   12.61938335632   -4.23909984007    2.00000000000
      6.30969451360   12.61938335632   -4.23909984007    2.00000000000
     12.61938170602    6.30969616389   -4.23909984007    2.00000000000
     12.61938170602   -6.30967822096   -4.23909984007    2.00000000000
      6.30969451360  -12.61936541339   -4.23909984007    2.00000000000
     -6.30967987125  -12.61936541339   -4.23909984007    2.00000000000
    -12.61936706368   -6.30967822096   -4.23909984007    2.00000000000
[...]
 

 Direct DF-CCSD(T) calculation
 
 Convergence criterion:  1.0E-05
 
 Number of occupied/virtual/auxiliary orbitals:    13    75   223
    432.56 MB is the minimal memory requirement for (T)
    400.29 MB is the minimal memory requirement for CCSD
 
 MP2 correlation energy [au]:        -0.484601828381
 
 LMP2 domain correlation energy contribution [au]:       -0.072234623306
 
 CPU time [min]: 20391.485                   Wall time [min]:   315.719
 
 
 Starting CCSD iterations...
 
                     Residual norm       Correlation Energy
 Iteration  1        0.185096539152       -0.486624384953
 Iteration  2        0.042581160218       -0.496900756791
 Iteration  3        0.013776097589       -0.498359790255
 Iteration  4        0.003435302015       -0.498335051194
 Iteration  5        0.001003417744       -0.498374514798
 Iteration  6        0.000203575201       -0.498369900148
 Iteration  7        0.000055347527       -0.498370015784
 
 CCSD iteration has converged in  7 steps.
      518.69 MB memory was utilized by CCSD
 
 T1 diagnostic:      9.308E-03            D1 diagnostic:      2.474E-02
 
 CCSD correlation energy [au]:          -0.071537985169
 
 CPU time [min]: 20392.411                   Wall time [min]:   315.733
 
 Calculation of (T) correction...
 
 Laplace threshold, nquadmin:  1.00E-02   3
 Number of quadrature points:    3
 
      463.42 MB memory is utilized for (T)

 0%       25%       50%       75%       100%
 |---------|---------|---------|---------| 
 
 (T) correction [au]:                   -0.002542585730
 CCSD(T) correlation energy [au]:       -0.074080570899
 
 CPU time [min]: 20393.915                   Wall time [min]:   315.755
 
 MO:   148
 Number of atoms in domain:      41
 Number of atomic orbitals:    2439
 Number of atoms for local DF:   23
 Number of fitting functions:  3386  (56.41%)
 Warning: drop high-lying PAOs                    23
 Number of occupied orbitals:    40
 Number of virtual  orbitals:  1181
 Number of Cholesky vectors:      8
 MP2 energy in ED [au]:          -0.073928895404
 Number of occupied LNOs:        26  (65.00%)
 Number of virtual  LNOs:       109   (9.23%)
 avg/min projected vLNO norm    9.9874E-01    9.9495E-01
 Number of Cholesky vectors:      6
 MP2 energy in LIS [au]:         -0.073279397047
 Correction for frozen LNO [au]: -0.000649498357     (0.879%)
 Number of NAFs:                361  (10.66%)
 CPU time [min]: 20516.937                   Wall time [min]:   317.573
 

 Direct DF-CCSD(T) calculation
 
 Convergence criterion:  1.0E-05
 
 Number of occupied/virtual/auxiliary orbitals:    26   109   361
    653.07 MB is the minimal memory requirement for (T)
    544.32 MB is the minimal memory requirement for CCSD
 
 MP2 correlation energy [au]:        -0.773515809886
 
 LMP2 domain correlation energy contribution [au]:       -0.073279115310
 
 CPU time [min]: 20517.087                   Wall time [min]:   317.575
 
 
 Starting CCSD iterations...
 
                     Residual norm       Correlation Energy
 Iteration  1        0.209428150021       -0.785054035135
 Iteration  2        0.049435176074       -0.801390629955
 Iteration  3        0.015645019387       -0.803261733298
 Iteration  4        0.003458155984       -0.803285844062
 Iteration  5        0.000946256554       -0.803291021222
 Iteration  6        0.000203047271       -0.803286806491
 Iteration  7        0.000050673999       -0.803286726254
 
 CCSD iteration has converged in  7 steps.
     1068.08 MB memory was utilized by CCSD
 
 T1 diagnostic:      1.004E-02            D1 diagnostic:      2.849E-02
 
 CCSD correlation energy [au]:          -0.072757679025
 
 CPU time [min]: 20521.789                   Wall time [min]:   317.645
 
 Calculation of (T) correction...
 
 Laplace threshold, nquadmin:  1.00E-02   3
 Number of quadrature points:    3
 
      909.35 MB memory is utilized for (T)

 0%       25%       50%       75%       100%
 |---------|---------|---------|---------| 
 
 (T) correction [au]:                   -0.002720668075
 CCSD(T) correlation energy [au]:       -0.075478347100
 
 CPU time [min]: 20532.077                   Wall time [min]:   317.792
 
 MO:   149
 Number of atoms in domain:      49
 Number of atomic orbitals:    2895
 Number of atoms for local DF:   32
 Number of fitting functions:  4681  (65.65%)
 Warning: drop high-lying PAOs                    32
 Number of occupied orbitals:    60
 Number of virtual  orbitals:  1778
 Number of Cholesky vectors:      8
 MP2 energy in ED [au]:          -0.075509722016
 Number of occupied LNOs:        38  (63.33%)
 Number of virtual  LNOs:       138   (7.76%)
 avg/min projected vLNO norm    9.9915E-01    9.9676E-01
 Number of Cholesky vectors:      6
 MP2 energy in LIS [au]:         -0.074661346837
 Correction for frozen LNO [au]: -0.000848375178     (1.124%)
 Number of NAFs:                484  (10.34%)
 CPU time [min]: 20787.441                   Wall time [min]:   322.164
 

 Direct DF-CCSD(T) calculation
 
 Convergence criterion:  1.0E-05
 
 Number of occupied/virtual/auxiliary orbitals:    38   138   484
   1093.19 MB is the minimal memory requirement for (T)
    852.26 MB is the minimal memory requirement for CCSD
 
 MP2 correlation energy [au]:        -1.020875414434
 
 LMP2 domain correlation energy contribution [au]:       -0.074662037015
 
 CPU time [min]: 20787.946                   Wall time [min]:   322.175
 
 
 Starting CCSD iterations...
 
                     Residual norm       Correlation Energy
 Iteration  1        0.234999049522       -1.039035515199
 Iteration  2        0.057502078287       -1.061729004513
 Iteration  3        0.018389883253       -1.064360623582
 Iteration  4        0.004237461965       -1.064401903164
 Iteration  5        0.001158583690       -1.064388965015
 Iteration  6        0.000261510516       -1.064383923285
 Iteration  7        0.000067892358       -1.064383717534
 
 CCSD iteration has converged in  7 steps.
     2204.85 MB memory was utilized by CCSD
 
 T1 diagnostic:      1.052E-02            D1 diagnostic:      3.124E-02
 
 CCSD correlation energy [au]:          -0.073881969944
 
 CPU time [min]: 20804.579                   Wall time [min]:   322.426
 
 Calculation of (T) correction...
 
 Laplace threshold, nquadmin:  1.00E-02   3
 Number of quadrature points:    3
 
     1932.45 MB memory is utilized for (T)

 0%       25%       50%       75%       100%
 |---------|---------|---------|---------| 
 
 (T) correction [au]:                   -0.002948410299
 CCSD(T) correlation energy [au]:       -0.076830380243
 
 CPU time [min]: 20841.339                   Wall time [min]:   322.955
 
 MO:   150
 Number of atoms in domain:      41
 Number of atomic orbitals:    2439
 Number of atoms for local DF:   23
 Number of fitting functions:  3386  (56.41%)
 Warning: drop high-lying PAOs                    23
 Number of occupied orbitals:    40
 Number of virtual  orbitals:  1181
 Number of Cholesky vectors:      8
 MP2 energy in ED [au]:          -0.072898874878
 Number of occupied LNOs:        25  (62.50%)
 Number of virtual  LNOs:       103   (8.72%)
 avg/min projected vLNO norm    9.9868E-01    9.9518E-01
 Number of Cholesky vectors:      6
 MP2 energy in LIS [au]:         -0.072355924130
 Correction for frozen LNO [au]: -0.000542950748     (0.745%)
 Number of NAFs:                340  (10.04%)
 CPU time [min]: 20962.683                   Wall time [min]:   324.727
 

 Direct DF-CCSD(T) calculation
 
 Convergence criterion:  1.0E-05
 
 Number of occupied/virtual/auxiliary orbitals:    25   103   340
    606.31 MB is the minimal memory requirement for (T)
    515.75 MB is the minimal memory requirement for CCSD
 
 MP2 correlation energy [au]:        -0.696910074508
 
 LMP2 domain correlation energy contribution [au]:       -0.072358827260
 
 CPU time [min]: 20962.808                   Wall time [min]:   324.729
 
 
 Starting CCSD iterations...
 
                     Residual norm       Correlation Energy
 Iteration  1        0.208057034338       -0.711240143356
 Iteration  2        0.048549346601       -0.727473109751
 Iteration  3        0.015061331639       -0.729155534503
 Iteration  4        0.003434802445       -0.729157448931
 Iteration  5        0.000938057642       -0.729164581768
 Iteration  6        0.000199925686       -0.729161575349
 Iteration  7        0.000047965643       -0.729161777677
 
 CCSD iteration has converged in  7 steps.
      932.32 MB memory was utilized by CCSD
 
 T1 diagnostic:      1.009E-02            D1 diagnostic:      3.001E-02
 
 CCSD correlation energy [au]:          -0.071874650473
 
 CPU time [min]: 20966.736                   Wall time [min]:   324.787
 
 Calculation of (T) correction...
 
 Laplace threshold, nquadmin:  1.00E-02   3
 Number of quadrature points:    3
 
      813.05 MB memory is utilized for (T)

 0%       25%       50%       75%       100%
 |---------|---------|---------|---------| 
 
 (T) correction [au]:                   -0.002607632294
 CCSD(T) correlation energy [au]:       -0.074482282767
 
 CPU time [min]: 20975.379                   Wall time [min]:   324.911
 
 MO:   151
 Number of atoms in domain:      49
 Number of atomic orbitals:    2895
 Number of atoms for local DF:   30
 Number of fitting functions:  4399  (61.70%)
 Warning: drop high-lying PAOs                    30
 Number of occupied orbitals:    60
 Number of virtual  orbitals:  1670
 Number of Cholesky vectors:      8
 MP2 energy in ED [au]:          -0.075295320795
 Number of occupied LNOs:        38  (63.33%)
 Number of virtual  LNOs:       136   (8.14%)
 avg/min projected vLNO norm    9.9928E-01    9.9721E-01
 Number of Cholesky vectors:      6
 MP2 energy in LIS [au]:         -0.074482076560
 Correction for frozen LNO [au]: -0.000813244234     (1.080%)
 Number of NAFs:                479  (10.89%)
 CPU time [min]: 21208.330                   Wall time [min]:   328.848
 

 Direct DF-CCSD(T) calculation
 
 Convergence criterion:  1.0E-05
 
 Number of occupied/virtual/auxiliary orbitals:    38   136   479
   1068.57 MB is the minimal memory requirement for (T)
    837.71 MB is the minimal memory requirement for CCSD
 
 MP2 correlation energy [au]:        -0.986642614794
 
 LMP2 domain correlation energy contribution [au]:       -0.074483419265
 
 CPU time [min]: 21208.828                   Wall time [min]:   328.859
 
 
 Starting CCSD iterations...
 
                     Residual norm       Correlation Energy
 Iteration  1        0.231930926318       -1.005065102955
 Iteration  2        0.056653898455       -1.027269210145
 Iteration  3        0.018164768922       -1.029846369689
 Iteration  4        0.004211122200       -1.029874087921
 Iteration  5        0.001157026484       -1.029864127846
 Iteration  6        0.000261914463       -1.029860417732
 Iteration  7        0.000069444985       -1.029860178984
 
 CCSD iteration has converged in  7 steps.
     2112.57 MB memory was utilized by CCSD
 
 T1 diagnostic:      1.030E-02            D1 diagnostic:      3.149E-02
 
 CCSD correlation energy [au]:          -0.073712662583
 
 CPU time [min]: 21224.403                   Wall time [min]:   329.092
 
 Calculation of (T) correction...
 
 Laplace threshold, nquadmin:  1.00E-02   3
 Number of quadrature points:    3
 
     1874.22 MB memory is utilized for (T)

 0%       25%       50%       75%       100%
 |---------|---------|---------|---------| 
 
 (T) correction [au]:                   -0.002932329632
 CCSD(T) correlation energy [au]:       -0.076644992215
 
 CPU time [min]: 21262.381                   Wall time [min]:   329.630
 
 MO:   152
 Number of atoms in domain:      42
 Number of atomic orbitals:    2496
 Number of atoms for local DF:   25
 Number of fitting functions:  3681  (59.92%)
 Warning: drop high-lying PAOs                    25
 Number of occupied orbitals:    44
 Number of virtual  orbitals:  1320
 Number of Cholesky vectors:      8
 MP2 energy in ED [au]:          -0.075277355873
 Number of occupied LNOs:        27  (61.36%)
 Number of virtual  LNOs:       115   (8.71%)
 avg/min projected vLNO norm    9.9888E-01    9.9538E-01
 Number of Cholesky vectors:      6
 MP2 energy in LIS [au]:         -0.074591910572
 Correction for frozen LNO [au]: -0.000685445301     (0.911%)
 Number of NAFs:                379  (10.30%)
 CPU time [min]: 21405.941                   Wall time [min]:   331.865
 

 Direct DF-CCSD(T) calculation
 
 Convergence criterion:  1.0E-05
 
 Number of occupied/virtual/auxiliary orbitals:    27   115   379
    704.71 MB is the minimal memory requirement for (T)
    575.75 MB is the minimal memory requirement for CCSD
 
 MP2 correlation energy [au]:        -0.814982034206
 
 LMP2 domain correlation energy contribution [au]:       -0.074592282667
 
 CPU time [min]: 21406.099                   Wall time [min]:   331.867
 
 
 Starting CCSD iterations...
 
                     Residual norm       Correlation Energy
 Iteration  1        0.214796508428       -0.820080029990
 Iteration  2        0.053549841478       -0.837406043745
 Iteration  3        0.017972980063       -0.839902200272
 Iteration  4        0.004755622469       -0.839928522756
 Iteration  5        0.001352089135       -0.839932265702
 Iteration  6        0.000337851987       -0.839924253133
 Iteration  7        0.000110674417       -0.839922676913
 Iteration  8        0.000035072579       -0.839923595785
 
 CCSD iteration has converged in  8 steps.
     1226.65 MB memory was utilized by CCSD
 
 T1 diagnostic:      1.061E-02            D1 diagnostic:      3.126E-02
 
 CCSD correlation energy [au]:          -0.073539666510
 
 CPU time [min]: 21412.450                   Wall time [min]:   331.962
 
 Calculation of (T) correction...
 
 Laplace threshold, nquadmin:  1.00E-02   3
 Number of quadrature points:    3
 
     1019.23 MB memory is utilized for (T)

 0%       25%       50%       75%       100%
 |---------|---------|---------|---------| 
 
 (T) correction [au]:                   -0.002969070349
 CCSD(T) correlation energy [au]:       -0.076508736858
 
 CPU time [min]: 21424.775                   Wall time [min]:   332.138
 
 **********************************************************************
 Dimensions of the extended domains:    Minimum / Average / Maximum
 
 Number of atoms in domain:                  34      42.1        55
 Number of atomic orbitals:                2028    2499.1      3237
 Number of fitting functions:              1924    3214.5      5579
 Number of occupied localized MOs:           24      39.9        60
 Number of PAOs:                            659    1157.8      2156
 Number of occupied LNOs:                    13      23.7        38
 Number of virtual  LNOs:                    74     103.2       138
 Number of NAFs:                            220     337.0       484
 
 **********************************************************************
 Distant (and weak) pair contributions, corrections
 
 Sum of pair energies [au]:                    -0.013337801514    (0.118%)
 Sum of energy corrections [au]:               -0.095358963691    (0.846%)
 Pair energies + LNO corrections [au]:         -0.108696765205
 Sum of LMP2 contributions [au]:              -11.267537301394
 
 **********************************************************************
  Time of manipulations in the EDs:      max CPU/Wall [s]  all CPU/Wall [min]
 
 PD construction & multipole pair E   17802.49   258.80   296.71     4.31
 Construct MO basis of the ED            98.91     1.31   110.16     1.46
 (mu,nu|P) evaluation & trf 2 (ai|P)   7451.61   126.56  7841.37   114.17
 Evaluate MP2 energy of the ED          731.06     9.67   471.30     6.23
 Transformations to the LNO basis       351.35     4.66   277.54     3.69
 Build W_PQ (Jai or Jpi part)            17.92     0.24    16.52     0.22
 Evaluate MP2 energy of the LIS           3.93     0.05     3.25     0.04
 (mu,nu|P) evaluation & trf 2 J(abQ)  11046.48   208.07  9749.19   163.47
 Total of the above for all EDs       19701.27   350.57 18469.34   289.29
 
 **********************************************************************
 Maximum memory requirement [MB]:       
 
 PD construction & multipole pair E        830.7
 AO integral evaluation in the EDs        6828.1
 (mu,nu|P) evaluation & trf 2 (aI|P)     23878.9
 Evaluate MP2 energy in the EDs          13490.7
 Transformation to the LNO basis          2018.3
 (mu,nu|P) to Jab transformation          8141.9
 Evaluate MP2 energy in the LIS           2422.8
 Minimum requirement for LIS CCSD          852.3
 Actually allocated  for LIS CCSD         2204.9
 Minimum requirement for LIS (T)          1093.2
 Actually allocated  for LIS (T)          1932.5
 
 ======================================================================
 ======================================================================
 
 
 
 ======================================================================
 ======================================================================
 
 Final local CC results:
 
 Minimum number of correlated electrons:        26       (  8.6%)
 Maximum number of correlated electrons:        76       ( 25.0%)
 Average number of correlated electrons:        47.4     ( 15.6%)
 Minimum number of correlated orbitals:         87       (  2.8%)
 Maximum number of correlated orbitals:        176       (  5.7%)
 Average number of correlated orbitals:        126.9     (  4.1%)
 
 CPU time for integral calculations [min]:                150.887
 Wall time for integral calculations [min]:                26.766
 
 CPU time for SCF calculation [min]:                     4246.058
 Wall time for SCF calculation [min]:                      56.768
 
 CPU time for orbital localization [min]:                   1.528
 Wall time for orbital localization [min]:                  0.460
 
 CPU time for integral transformations [min]:           18900.296
 Wall time for integral transformations [min]:            295.508
 
 Reference energy [au]:                                -14334.295858477613
 
 LMP2 correlation energy [au]:                            -11.267537301394
 Total LMP2 energy [au]:                               -14345.563395779007
 
 Total MP2 correction for dropped NAFs [au]:                0.000120185949
 Total MP2 correction [au]:                                -0.108576579256
 
 CPU time for CCSD calculations [min]:                    816.486
 Total CPU time for CCSD [min]:                         24115.254
 Wall time for CCSD calculations [min]:                    12.192
 Total wall time for CCSD [min]:                          391.694
 
 CCSD correlation energy [au]:                            -11.043078904382
 Total CCSD energy [au]:                               -14345.338937381995
 CCSD correlation energy + 0.5 MP2 corrections [au]:      -11.097367194010
 Total LNO-CCSD energy with MP2 corrections [au]:      -14345.393225671623
 
 CPU time for (T) corrections [min]:                     1707.997
 Total CPU time for CCSD(T) [min]:                      25823.251
 Wall time for (T) corrections [min]:                      24.438
 Total wall time for CCSD(T) [min]:                       416.132
 
 Total (T) correlation energy contribution [au]:           -0.419330643512
 Total (T) correlation energy+0.5 MP2 correction [au]:     -0.473618933140
 CCSD(T) correlation energy [au]:                         -11.462409547894
 Total CCSD(T) energy [au]:                            -14345.758268025507
 CCSD(T) correlation energy + MP2 corrections [au]:       -11.570986127150
 Total LNO-CCSD(T) energy with MP2 corrections [au]:   -14345.866844604763
 
 ======================================================================
 ======================================================================
 
 ************************ 2021-11-18 14:44:53 *************************
                      Normal termination of mrcc.
 **********************************************************************
