 **********************************************************************
                          MRCC program system
 **********************************************************************
 
                              Written by
 Mihaly Kallay, Peter R. Nagy, David Mester, Zoltan Rolik, Gyula Samu,
   Jozsef Csontos, Jozsef Csoka, P. Bernat Szabo, Laszlo Gyevi-Nagy,
    Bence Hegely, Istvan Ladjanszki, Lorant Szegedy, Bence Ladoczki,
       Klara Petrov, Mate Farkas, Pal D. Mezei, and Adam Ganyecz
 
        Department of Physical Chemistry and Materials Science
            Budapest University of Technology and Economics
                  Budapest P.O.Box 91, H-1521 Hungary
 
                              www.mrcc.hu
 
                    Release date: February 22, 2020

 ************************ 2021-11-30 22:09:25 *************************
 Executing minp...

 Reading input from MINP...
 
 Input file:
 
calc=SCF
dft=B3LYP
scftype=rks
verbosity=3
mem=490GB
symm=off
unit=angs
scfiguess=restart
scfmaxit=1000
scfalg=locfit1

charge=-66
basis=special
def2-QZVPP
def2-QZVPP
def2-QZVPP
def2-QZVPP
def2-QZVPP
def2-QZVPP
def2-QZVPP
def2-QZVPP
def2-QZVPP
def2-QZVPP
def2-QZVPP
def2-QZVPP
def2-QZVPP
def2-QZVPP
def2-QZVPP
def2-QZVPP
def2-QZVPP
def2-QZVPP
def2-QZVPP
def2-QZVPP
def2-QZVPP
def2-QZVPP
def2-QZVPP
def2-QZVPP
def2-QZVPP
def2-QZVPP
def2-QZVPP
def2-QZVPP
def2-QZVPP
def2-QZVPP
def2-QZVPP
def2-QZVPP
def2-QZVPP
def2-QZVPP
def2-QZVPP
def2-QZVPP
def2-QZVPP
def2-QZVPP
def2-QZVPP
def2-QZVPP
def2-QZVPP
def2-QZVPP
def2-QZVPP
def2-QZVPP
def2-QZVPP
def2-QZVPP
def2-QZVPP
def2-QZVPP
def2-QZVPP
def2-QZVPP
def2-QZVPP
def2-QZVPP
def2-QZVPP
def2-QZVPP
def2-QZVPP
def2-QZVPP
def2-QZVPP
def2-QZVPP
def2-QZVPP
def2-QZVPP
def2-QZVPP
def2-QZVPP
def2-QZVPP
def2-QZVPP
def2-QZVPP
def2-QZVPP
def2-QZVPP
def2-QZVPP
def2-QZVPP
def2-QZVPP
def2-QZVPP
def2-QZVPP
def2-QZVPP
def2-QZVPP
def2-QZVPP
def2-QZVPP
def2-QZVPP
def2-QZVPP
def2-QZVPP
def2-QZVPP
def2-QZVPP
def2-QZVPP
def2-QZVPP
def2-QZVPP
def2-QZVPP
def2-QZVPP
def2-QZVPP
nothing
nothing
nothing
nothing
nothing
nothing
nothing
nothing
nothing
nothing
nothing
nothing
nothing
nothing
nothing
nothing
nothing
nothing
nothing
nothing
nothing
nothing
nothing
nothing
nothing
nothing
nothing
nothing
nothing
nothing
nothing
nothing
nothing
nothing
nothing
nothing
nothing
nothing
nothing
nothing
nothing
nothing
nothing
nothing
nothing
nothing
nothing
nothing
nothing
nothing
nothing
nothing
nothing
nothing
nothing
nothing
nothing
nothing
nothing
nothing
nothing
nothing
nothing
nothing
nothing
nothing
nothing
nothing
nothing
nothing
nothing
nothing
nothing
nothing
nothing
nothing
nothing
nothing
nothing
nothing
nothing
nothing
nothing
nothing
nothing
nothing
nothing
nothing
nothing
nothing
nothing
nothing
nothing
nothing
nothing
nothing
nothing
nothing
nothing
nothing
nothing
nothing
nothing
nothing
nothing
nothing
nothing
nothing
nothing
nothing
nothing
nothing
nothing
nothing
nothing
nothing
nothing
nothing
nothing
nothing
nothing
nothing
nothing
nothing
nothing
nothing
nothing
nothing
nothing
nothing
nothing
nothing
nothing
nothing
nothing
nothing
nothing
nothing
nothing
nothing
nothing
nothing
nothing
nothing
nothing
nothing
nothing
nothing
nothing
nothing
nothing
nothing
nothing
nothing
nothing
nothing
nothing
nothing
nothing
nothing
nothing
nothing
nothing
nothing
nothing
nothing
nothing
nothing
nothing
nothing
nothing
nothing
nothing
nothing
nothing
nothing
nothing
nothing
nothing
nothing
nothing
nothing
nothing
nothing
nothing
nothing
nothing
nothing
nothing
nothing
nothing
nothing
nothing
nothing
nothing
nothing
nothing
nothing
nothing
nothing
nothing
nothing
nothing
nothing
nothing
nothing
nothing
nothing
nothing
nothing
nothing
nothing
nothing
nothing
nothing
nothing
nothing
nothing
nothing
nothing
nothing
nothing
nothing
nothing
nothing
nothing
nothing
nothing
nothing
nothing
nothing
nothing
nothing
nothing
nothing
nothing
nothing
nothing
nothing
nothing
nothing
nothing
nothing
nothing
nothing
nothing
nothing
nothing
nothing
nothing
nothing
nothing
nothing
nothing
nothing
nothing

basis_sm=special
STO-3G
STO-3G
STO-3G
STO-3G
STO-3G
STO-3G
STO-3G
STO-3G
STO-3G
STO-3G
STO-3G
STO-3G
STO-3G
STO-3G
STO-3G
STO-3G
STO-3G
STO-3G
STO-3G
STO-3G
STO-3G
STO-3G
STO-3G
STO-3G
STO-3G
STO-3G
STO-3G
STO-3G
STO-3G
STO-3G
STO-3G
STO-3G
STO-3G
STO-3G
STO-3G
STO-3G
STO-3G
STO-3G
STO-3G
STO-3G
STO-3G
STO-3G
STO-3G
STO-3G
STO-3G
STO-3G
STO-3G
STO-3G
STO-3G
STO-3G
STO-3G
STO-3G
STO-3G
STO-3G
STO-3G
STO-3G
STO-3G
STO-3G
STO-3G
STO-3G
STO-3G
STO-3G
STO-3G
STO-3G
STO-3G
STO-3G
STO-3G
STO-3G
STO-3G
STO-3G
STO-3G
STO-3G
STO-3G
STO-3G
STO-3G
STO-3G
STO-3G
STO-3G
STO-3G
STO-3G
STO-3G
STO-3G
STO-3G
STO-3G
STO-3G
STO-3G
STO-3G
nothing
nothing
nothing
nothing
nothing
nothing
nothing
nothing
nothing
nothing
nothing
nothing
nothing
nothing
nothing
nothing
nothing
nothing
nothing
nothing
nothing
nothing
nothing
nothing
nothing
nothing
nothing
nothing
nothing
nothing
nothing
nothing
nothing
nothing
nothing
nothing
nothing
nothing
nothing
nothing
nothing
nothing
nothing
nothing
nothing
nothing
nothing
nothing
nothing
nothing
nothing
nothing
nothing
nothing
nothing
nothing
nothing
nothing
nothing
nothing
nothing
nothing
nothing
nothing
nothing
nothing
nothing
nothing
nothing
nothing
nothing
nothing
nothing
nothing
nothing
nothing
nothing
nothing
nothing
nothing
nothing
nothing
nothing
nothing
nothing
nothing
nothing
nothing
nothing
nothing
nothing
nothing
nothing
nothing
nothing
nothing
nothing
nothing
nothing
nothing
nothing
nothing
nothing
nothing
nothing
nothing
nothing
nothing
nothing
nothing
nothing
nothing
nothing
nothing
nothing
nothing
nothing
nothing
nothing
nothing
nothing
nothing
nothing
nothing
nothing
nothing
nothing
nothing
nothing
nothing
nothing
nothing
nothing
nothing
nothing
nothing
nothing
nothing
nothing
nothing
nothing
nothing
nothing
nothing
nothing
nothing
nothing
nothing
nothing
nothing
nothing
nothing
nothing
nothing
nothing
nothing
nothing
nothing
nothing
nothing
nothing
nothing
nothing
nothing
nothing
nothing
nothing
nothing
nothing
nothing
nothing
nothing
nothing
nothing
nothing
nothing
nothing
nothing
nothing
nothing
nothing
nothing
nothing
nothing
nothing
nothing
nothing
nothing
nothing
nothing
nothing
nothing
nothing
nothing
nothing
nothing
nothing
nothing
nothing
nothing
nothing
nothing
nothing
nothing
nothing
nothing
nothing
nothing
nothing
nothing
nothing
nothing
nothing
nothing
nothing
nothing
nothing
nothing
nothing
nothing
nothing
nothing
nothing
nothing
nothing
nothing
nothing
nothing
nothing
nothing
nothing
nothing
nothing
nothing
nothing
nothing
nothing
nothing
nothing
nothing
nothing
nothing
nothing
nothing
nothing
nothing
nothing
nothing
nothing
nothing
nothing
nothing
nothing
nothing
nothing
nothing

dfbasis_scf=special
def2-QZVPP-RI-JK
def2-QZVPP-RI-JK
def2-QZVPP-RI-JK
def2-QZVPP-RI-JK
def2-QZVPP-RI-JK
def2-QZVPP-RI-JK
def2-QZVPP-RI-JK
def2-QZVPP-RI-JK
def2-QZVPP-RI-JK
def2-QZVPP-RI-JK
def2-QZVPP-RI-JK
def2-QZVPP-RI-JK
def2-QZVPP-RI-JK
def2-QZVPP-RI-JK
def2-QZVPP-RI-JK
def2-QZVPP-RI-JK
def2-QZVPP-RI-JK
def2-QZVPP-RI-JK
def2-QZVPP-RI-JK
def2-QZVPP-RI-JK
def2-QZVPP-RI-JK
def2-QZVPP-RI-JK
def2-QZVPP-RI-JK
def2-QZVPP-RI-JK
def2-QZVPP-RI-JK
def2-QZVPP-RI-JK
def2-QZVPP-RI-JK
def2-QZVPP-RI-JK
def2-QZVPP-RI-JK
def2-QZVPP-RI-JK
def2-QZVPP-RI-JK
def2-QZVPP-RI-JK
def2-QZVPP-RI-JK
def2-QZVPP-RI-JK
def2-QZVPP-RI-JK
def2-QZVPP-RI-JK
def2-QZVPP-RI-JK
def2-QZVPP-RI-JK
def2-QZVPP-RI-JK
def2-QZVPP-RI-JK
def2-QZVPP-RI-JK
def2-QZVPP-RI-JK
def2-QZVPP-RI-JK
def2-QZVPP-RI-JK
def2-QZVPP-RI-JK
def2-QZVPP-RI-JK
def2-QZVPP-RI-JK
def2-QZVPP-RI-JK
def2-QZVPP-RI-JK
def2-QZVPP-RI-JK
def2-QZVPP-RI-JK
def2-QZVPP-RI-JK
def2-QZVPP-RI-JK
def2-QZVPP-RI-JK
def2-QZVPP-RI-JK
def2-QZVPP-RI-JK
def2-QZVPP-RI-JK
def2-QZVPP-RI-JK
def2-QZVPP-RI-JK
def2-QZVPP-RI-JK
def2-QZVPP-RI-JK
def2-QZVPP-RI-JK
def2-QZVPP-RI-JK
def2-QZVPP-RI-JK
def2-QZVPP-RI-JK
def2-QZVPP-RI-JK
def2-QZVPP-RI-JK
def2-QZVPP-RI-JK
def2-QZVPP-RI-JK
def2-QZVPP-RI-JK
def2-QZVPP-RI-JK
def2-QZVPP-RI-JK
def2-QZVPP-RI-JK
def2-QZVPP-RI-JK
def2-QZVPP-RI-JK
def2-QZVPP-RI-JK
def2-QZVPP-RI-JK
def2-QZVPP-RI-JK
def2-QZVPP-RI-JK
def2-QZVPP-RI-JK
def2-QZVPP-RI-JK
def2-QZVPP-RI-JK
def2-QZVPP-RI-JK
def2-QZVPP-RI-JK
def2-QZVPP-RI-JK
def2-QZVPP-RI-JK
def2-QZVPP-RI-JK
nothing
nothing
nothing
nothing
nothing
nothing
nothing
nothing
nothing
nothing
nothing
nothing
nothing
nothing
nothing
nothing
nothing
nothing
nothing
nothing
nothing
nothing
nothing
nothing
nothing
nothing
nothing
nothing
nothing
nothing
nothing
nothing
nothing
nothing
nothing
nothing
nothing
nothing
nothing
nothing
nothing
nothing
nothing
nothing
nothing
nothing
nothing
nothing
nothing
nothing
nothing
nothing
nothing
nothing
nothing
nothing
nothing
nothing
nothing
nothing
nothing
nothing
nothing
nothing
nothing
nothing
nothing
nothing
nothing
nothing
nothing
nothing
nothing
nothing
nothing
nothing
nothing
nothing
nothing
nothing
nothing
nothing
nothing
nothing
nothing
nothing
nothing
nothing
nothing
nothing
nothing
nothing
nothing
nothing
nothing
nothing
nothing
nothing
nothing
nothing
nothing
nothing
nothing
nothing
nothing
nothing
nothing
nothing
nothing
nothing
nothing
nothing
nothing
nothing
nothing
nothing
nothing
nothing
nothing
nothing
nothing
nothing
nothing
nothing
nothing
nothing
nothing
nothing
nothing
nothing
nothing
nothing
nothing
nothing
nothing
nothing
nothing
nothing
nothing
nothing
nothing
nothing
nothing
nothing
nothing
nothing
nothing
nothing
nothing
nothing
nothing
nothing
nothing
nothing
nothing
nothing
nothing
nothing
nothing
nothing
nothing
nothing
nothing
nothing
nothing
nothing
nothing
nothing
nothing
nothing
nothing
nothing
nothing
nothing
nothing
nothing
nothing
nothing
nothing
nothing
nothing
nothing
nothing
nothing
nothing
nothing
nothing
nothing
nothing
nothing
nothing
nothing
nothing
nothing
nothing
nothing
nothing
nothing
nothing
nothing
nothing
nothing
nothing
nothing
nothing
nothing
nothing
nothing
nothing
nothing
nothing
nothing
nothing
nothing
nothing
nothing
nothing
nothing
nothing
nothing
nothing
nothing
nothing
nothing
nothing
nothing
nothing
nothing
nothing
nothing
nothing
nothing
nothing
nothing
nothing
nothing
nothing
nothing
nothing
nothing
nothing
nothing
nothing
nothing
nothing
nothing
nothing
nothing
nothing
nothing
nothing
nothing
nothing
nothing
nothing
nothing

ecp=special
none
none
none
none
none
none
none
none
none
none
none
none
none
none
none
none
none
none
none
none
none
none
none
none
none
none
none
none
none
none
none
none
none
none
none
none
none
none
none
none
none
none
none
none
none
none
none
none
none
none
none
none
none
none
none
none
none
none
none
none
none
none
none
none
none
none
none
none
none
none
none
none
none
none
none
none
none
none
none
none
none
none
none
none
none
none
none
ECP-22
ECP-22
ECP-22
ECP-22
ECP-22
ECP-22
ECP-22
ECP-22
ECP-22
ECP-22
ECP-22
ECP-22
ECP-22
ECP-22
ECP-22
ECP-22
ECP-22
ECP-22
ECP-22
ECP-22
ECP-22
ECP-22
ECP-22
ECP-22
ECP-22
ECP-22
ECP-22
ECP-22
ECP-22
ECP-22
ECP-22
ECP-22
ECP-22
ECP-22
ECP-22
ECP-22
ECP-22
ECP-22
ECP-22
ECP-22
ECP-22
ECP-22
ECP-22
ECP-22
ECP-22
ECP-22
ECP-22
ECP-22
ECP-22
ECP-22
ECP-22
ECP-22
ECP-22
ECP-22
ECP-22
ECP-22
ECP-22
ECP-22
ECP-22
ECP-22
ECP-22
ECP-22
ECP-22
ECP-22
ECP-22
ECP-22
ECP-22
ECP-22
ECP-22
ECP-22
ECP-22
ECP-22
ECP-22
ECP-22
ECP-22
ECP-22
ECP-22
ECP-22
ECP-22
ECP-22
ECP-22
ECP-22
ECP-22
ECP-22
ECP-22
ECP-22
ECP-22
ECP-22
ECP-22
ECP-22
ECP-22
ECP-22
ECP-22
ECP-22
ECP-22
ECP-22
ECP-22
ECP-22
ECP-22
ECP-22
ECP-22
ECP-22
ECP-22
ECP-22
ECP-22
ECP-22
ECP-22
ECP-22
ECP-22
ECP-22
ECP-22
ECP-22
ECP-22
ECP-22
ECP-22
ECP-22
ECP-22
ECP-22
ECP-22
ECP-22
ECP-22
ECP-22
ECP-22
ECP-22
ECP-22
ECP-22
ECP-22
ECP-22
ECP-22
ECP-22
ECP-22
ECP-22
ECP-22
ECP-22
ECP-22
ECP-22
ECP-22
ECP-22
ECP-22
ECP-22
ECP-22
ECP-22
ECP-22
ECP-22
ECP-22
ECP-22
ECP-22
ECP-22
ECP-22
ECP-22
ECP-22
ECP-22
ECP-22
ECP-22
ECP-22
ECP-22
ECP-22
ECP-22
ECP-22
ECP-22
ECP-22
ECP-22
ECP-22
ECP-22
ECP-22
ECP-22
ECP-22
ECP-22
ECP-22
ECP-22
ECP-22
ECP-22
ECP-22
ECP-22
ECP-22
ECP-22
ECP-22
ECP-22
ECP-22
ECP-22
ECP-22
ECP-22
ECP-22
ECP-22
ECP-22
ECP-22
ECP-22
ECP-22
ECP-22
ECP-22
ECP-22
ECP-22
ECP-22
ECP-22
ECP-22
ECP-22
ECP-22
ECP-22
ECP-22
ECP-22
ECP-22
ECP-22
ECP-22
ECP-22
ECP-22
ECP-22
ECP-22
ECP-22
ECP-22
ECP-22
ECP-22
ECP-22
ECP-22
ECP-22
ECP-22
ECP-22
ECP-22
ECP-22
ECP-22
ECP-22
ECP-22
ECP-22
ECP-22
ECP-22
ECP-22
ECP-22
ECP-22
ECP-22
ECP-22
ECP-22
ECP-22
ECP-22
ECP-22
ECP-22
ECP-22
ECP-22
ECP-22
ECP-22
ECP-22
ECP-22
ECP-22
ECP-22
ECP-22
ECP-22
ECP-22
ECP-22
ECP-22
ECP-22
ECP-22
ECP-22
ECP-22
ECP-22
ECP-22
ECP-22
ECP-22
ECP-22

unit=angs
geom=xyz
343
Ti18O69ECP256
O     0.00000000000    0.00000000000    0.00000000000
Ti    0.00000000000    1.48054676798   -1.27209143018
Ti    0.00000000000   -1.48054676798   -1.27209143018
Ti    0.00000000000    0.00000000000    1.98192821856
O    -0.00000000000    0.00000000000   -2.54418286035
O    -1.27209143018    1.48054676798    1.98192821856
O     1.27209143018    1.48054676798    1.98192821856
O     1.27209143018   -1.48054676798    1.98192821856
O    -1.27209143018   -1.48054676798    1.98192821856
O    -1.98192821856    1.48054676798   -1.27209143018
O     1.98192821856    1.48054676798   -1.27209143018
O     1.98192821856   -1.48054676798   -1.27209143018
O    -1.98192821856   -1.48054676798   -1.27209143018
O     0.00000000000    2.96109353596    0.00000000000
O     0.00000000000   -2.96109353596    0.00000000000
O    -3.25401964873    0.00000000000    0.70983678838
O     3.25401964873    0.00000000000    0.70983678838
Ti   -3.25401964873    0.00000000000   -1.27209143018
Ti    3.25401964873    0.00000000000   -1.27209143018
Ti    0.00000000000    2.96109353596    1.98192821856
Ti    0.00000000000   -2.96109353596    1.98192821856
O    -0.00000000000    2.96109353596   -2.54418286035
O    -0.00000000000   -2.96109353596   -2.54418286035
O    -0.00000000000    0.00000000000    3.96385643712
Ti   -3.25401964873    1.48054676798    1.98192821856
Ti    3.25401964873    1.48054676798    1.98192821856
Ti    3.25401964873   -1.48054676798    1.98192821856
Ti   -3.25401964873   -1.48054676798    1.98192821856
O    -3.25401964873    2.96109353596    0.70983678838
O     3.25401964873    2.96109353596    0.70983678838
O     3.25401964873   -2.96109353596    0.70983678838
O    -3.25401964873   -2.96109353596    0.70983678838
Ti    0.00000000000    0.00000000000   -4.52611107891
O    -3.25401964873    0.00000000000    3.25401964873
O     3.25401964873    0.00000000000    3.25401964873
O    -3.25401964873    0.00000000000   -3.25401964873
O     3.25401964873    0.00000000000   -3.25401964873
Ti    0.00000000000    4.44164030394   -1.27209143018
Ti    0.00000000000   -4.44164030394   -1.27209143018
O    -4.52611107891    1.48054676798   -1.27209143018
O     4.52611107891    1.48054676798   -1.27209143018
O     4.52611107891   -1.48054676798   -1.27209143018
O    -4.52611107891   -1.48054676798   -1.27209143018
O    -1.27209143018    1.48054676798   -4.52611107891
O     1.27209143018    1.48054676798   -4.52611107891
O     1.27209143018   -1.48054676798   -4.52611107891
O    -1.27209143018   -1.48054676798   -4.52611107891
O    -0.00000000000    2.96109353596    3.96385643712
O    -0.00000000000   -2.96109353596    3.96385643712
O    -1.27209143018    4.44164030394    1.98192821856
O     1.27209143018    4.44164030394    1.98192821856
O     1.27209143018   -4.44164030394    1.98192821856
O    -1.27209143018   -4.44164030394    1.98192821856
O    -1.98192821856    4.44164030394   -1.27209143018
O     1.98192821856    4.44164030394   -1.27209143018
O     1.98192821856   -4.44164030394   -1.27209143018
O    -1.98192821856   -4.44164030394   -1.27209143018
Ti    0.00000000000    2.96109353596   -4.52611107891
Ti    0.00000000000   -2.96109353596   -4.52611107891
Ti    0.00000000000    1.48054676798    5.23594786729
Ti    0.00000000000   -1.48054676798    5.23594786729
O    -3.25401964873    2.96109353596    3.25401964873
O     3.25401964873    2.96109353596    3.25401964873
O     3.25401964873   -2.96109353596    3.25401964873
O    -3.25401964873   -2.96109353596    3.25401964873
O    -1.98192821856    1.48054676798    5.23594786729
O     1.98192821856    1.48054676798    5.23594786729
O     1.98192821856   -1.48054676798    5.23594786729
O    -1.98192821856   -1.48054676798    5.23594786729
O    -5.23594786729    1.48054676798    1.98192821856
O     5.23594786729    1.48054676798    1.98192821856
O     5.23594786729   -1.48054676798    1.98192821856
O    -5.23594786729   -1.48054676798    1.98192821856
O     0.00000000000    5.92218707193    0.00000000000
O     0.00000000000   -5.92218707193    0.00000000000
O    -0.00000000000    5.92218707193   -2.54418286035
O    -0.00000000000   -5.92218707193   -2.54418286035
O    -1.27209143018    4.44164030394   -4.52611107891
O     1.27209143018    4.44164030394   -4.52611107891
O     1.27209143018   -4.44164030394   -4.52611107891
O    -1.27209143018   -4.44164030394   -4.52611107891
O     0.00000000000    0.00000000000    6.50803929747
O     0.00000000000    0.00000000000   -6.50803929747
O     0.00000000000    2.96109353596    6.50803929747
O     0.00000000000   -2.96109353596    6.50803929747
O     0.00000000000    2.96109353596   -6.50803929747
O     0.00000000000   -2.96109353596   -6.50803929747
Ti   -3.25401964873    2.96109353596   -1.27209143018
Ti    3.25401964873    2.96109353596   -1.27209143018
Ti    3.25401964873   -2.96109353596   -1.27209143018
Ti   -3.25401964873   -2.96109353596   -1.27209143018
Ti   -3.25401964873    1.48054676798   -4.52611107891
Ti    3.25401964873    1.48054676798   -4.52611107891
Ti    3.25401964873   -1.48054676798   -4.52611107891
Ti   -3.25401964873   -1.48054676798   -4.52611107891
Ti   -3.25401964873    4.44164030394    1.98192821856
Ti    3.25401964873    4.44164030394    1.98192821856
Ti    3.25401964873   -4.44164030394    1.98192821856
Ti   -3.25401964873   -4.44164030394    1.98192821856
Ti   -3.25401964873    0.00000000000    5.23594786729
Ti    3.25401964873    0.00000000000    5.23594786729
Ti    0.00000000000    5.92218707193    1.98192821856
Ti    0.00000000000   -5.92218707193    1.98192821856
Ti   -6.50803929747    1.48054676798   -1.27209143018
Ti    6.50803929747    1.48054676798   -1.27209143018
Ti    6.50803929747   -1.48054676798   -1.27209143018
Ti   -6.50803929747   -1.48054676798   -1.27209143018
Ti   -6.50803929747    0.00000000000    1.98192821856
Ti    6.50803929747    0.00000000000    1.98192821856
Ti   -3.25401964873    2.96109353596    5.23594786729
Ti    3.25401964873    2.96109353596    5.23594786729
Ti    3.25401964873   -2.96109353596    5.23594786729
Ti   -3.25401964873   -2.96109353596    5.23594786729
Ti    0.00000000000    4.44164030394    5.23594786729
Ti    0.00000000000   -4.44164030394    5.23594786729
Ti   -3.25401964873    5.92218707193   -1.27209143018
Ti    3.25401964873    5.92218707193   -1.27209143018
Ti    3.25401964873   -5.92218707193   -1.27209143018
Ti   -3.25401964873   -5.92218707193   -1.27209143018
Ti   -3.25401964873    4.44164030394   -4.52611107891
Ti    3.25401964873    4.44164030394   -4.52611107891
Ti    3.25401964873   -4.44164030394   -4.52611107891
Ti   -3.25401964873   -4.44164030394   -4.52611107891
Ti   -6.50803929747    2.96109353596    1.98192821856
Ti    6.50803929747    2.96109353596    1.98192821856
Ti    6.50803929747   -2.96109353596    1.98192821856
Ti   -6.50803929747   -2.96109353596    1.98192821856
Ti    0.00000000000    5.92218707193   -4.52611107891
Ti    0.00000000000   -5.92218707193   -4.52611107891
Ti    0.00000000000    7.40273383991   -1.27209143018
Ti    0.00000000000   -7.40273383991   -1.27209143018
Ti    0.00000000000    1.48054676798   -7.78013072764
Ti    0.00000000000   -1.48054676798   -7.78013072764
Ti   -6.50803929747    0.00000000000   -4.52611107891
Ti    6.50803929747    0.00000000000   -4.52611107891
Ti   -6.50803929747    4.44164030394   -1.27209143018
Ti    6.50803929747    4.44164030394   -1.27209143018
Ti    6.50803929747   -4.44164030394   -1.27209143018
Ti   -6.50803929747   -4.44164030394   -1.27209143018
Ti   -3.25401964873    7.40273383991    1.98192821856
Ti    3.25401964873    7.40273383991    1.98192821856
Ti    3.25401964873   -7.40273383991    1.98192821856
Ti   -3.25401964873   -7.40273383991    1.98192821856
Ti   -3.25401964873    0.00000000000   -7.78013072764
Ti    3.25401964873    0.00000000000   -7.78013072764
Ti   -6.50803929747    2.96109353596   -4.52611107891
Ti    6.50803929747    2.96109353596   -4.52611107891
Ti    6.50803929747   -2.96109353596   -4.52611107891
Ti   -6.50803929747   -2.96109353596   -4.52611107891
Ti   -6.50803929747    1.48054676798    5.23594786729
Ti    6.50803929747    1.48054676798    5.23594786729
Ti    6.50803929747   -1.48054676798    5.23594786729
Ti   -6.50803929747   -1.48054676798    5.23594786729
Ti    0.00000000000    0.00000000000    8.48996751602
Ti   -3.25401964873    5.92218707193    5.23594786729
Ti    3.25401964873    5.92218707193    5.23594786729
Ti    3.25401964873   -5.92218707193    5.23594786729
Ti   -3.25401964873   -5.92218707193    5.23594786729
Ti   -3.25401964873    2.96109353596   -7.78013072764
Ti    3.25401964873    2.96109353596   -7.78013072764
Ti    3.25401964873   -2.96109353596   -7.78013072764
Ti   -3.25401964873   -2.96109353596   -7.78013072764
Ti    0.00000000000    4.44164030394   -7.78013072764
Ti    0.00000000000   -4.44164030394   -7.78013072764
Ti    0.00000000000    2.96109353596    8.48996751602
Ti    0.00000000000   -2.96109353596    8.48996751602
Ti   -6.50803929747    5.92218707193    1.98192821856
Ti    6.50803929747    5.92218707193    1.98192821856
Ti    6.50803929747   -5.92218707193    1.98192821856
Ti   -6.50803929747   -5.92218707193    1.98192821856
Ti    0.00000000000    7.40273383991    5.23594786729
Ti    0.00000000000   -7.40273383991    5.23594786729
Ti    0.00000000000    8.88328060789    1.98192821856
Ti    0.00000000000   -8.88328060789    1.98192821856
Ti   -3.25401964873    1.48054676798    8.48996751602
Ti    3.25401964873    1.48054676798    8.48996751602
Ti    3.25401964873   -1.48054676798    8.48996751602
Ti   -3.25401964873   -1.48054676798    8.48996751602
Ti   -3.25401964873    7.40273383991   -4.52611107891
Ti    3.25401964873    7.40273383991   -4.52611107891
Ti    3.25401964873   -7.40273383991   -4.52611107891
Ti   -3.25401964873   -7.40273383991   -4.52611107891
Ti   -6.50803929747    4.44164030394    5.23594786729
Ti    6.50803929747    4.44164030394    5.23594786729
Ti    6.50803929747   -4.44164030394    5.23594786729
Ti   -6.50803929747   -4.44164030394    5.23594786729
Ti   -3.25401964873    8.88328060789   -1.27209143018
Ti    3.25401964873    8.88328060789   -1.27209143018
Ti    3.25401964873   -8.88328060789   -1.27209143018
Ti   -3.25401964873   -8.88328060789   -1.27209143018
Ti   -9.76205894620    0.00000000000   -1.27209143018
Ti    9.76205894620    0.00000000000   -1.27209143018
Ti   -6.50803929747    5.92218707193   -4.52611107891
Ti    6.50803929747    5.92218707193   -4.52611107891
Ti    6.50803929747   -5.92218707193   -4.52611107891
Ti   -6.50803929747   -5.92218707193   -4.52611107891
Ti   -6.50803929747    7.40273383991   -1.27209143018
Ti    6.50803929747    7.40273383991   -1.27209143018
Ti    6.50803929747   -7.40273383991   -1.27209143018
Ti   -6.50803929747   -7.40273383991   -1.27209143018
Ti    0.00000000000    8.88328060789   -4.52611107891
Ti    0.00000000000   -8.88328060789   -4.52611107891
Ti   -9.76205894620    1.48054676798    1.98192821856
Ti    9.76205894620    1.48054676798    1.98192821856
Ti    9.76205894620   -1.48054676798    1.98192821856
Ti   -9.76205894620   -1.48054676798    1.98192821856
Ti   -3.25401964873    4.44164030394    8.48996751602
Ti    3.25401964873    4.44164030394    8.48996751602
Ti    3.25401964873   -4.44164030394    8.48996751602
Ti   -3.25401964873   -4.44164030394    8.48996751602
Ti   -6.50803929747    1.48054676798   -7.78013072764
Ti    6.50803929747    1.48054676798   -7.78013072764
Ti    6.50803929747   -1.48054676798   -7.78013072764
Ti   -6.50803929747   -1.48054676798   -7.78013072764
Ti   -9.76205894620    2.96109353596   -1.27209143018
Ti    9.76205894620    2.96109353596   -1.27209143018
Ti    9.76205894620   -2.96109353596   -1.27209143018
Ti   -9.76205894620   -2.96109353596   -1.27209143018
Ti   -3.25401964873    5.92218707193   -7.78013072764
Ti    3.25401964873    5.92218707193   -7.78013072764
Ti    3.25401964873   -5.92218707193   -7.78013072764
Ti   -3.25401964873   -5.92218707193   -7.78013072764
Ti    0.00000000000    5.92218707193    8.48996751602
Ti    0.00000000000   -5.92218707193    8.48996751602
Ti    0.00000000000   10.36382737587   -1.27209143018
Ti    0.00000000000  -10.36382737587   -1.27209143018
Ti   -6.50803929747    0.00000000000    8.48996751602
Ti    6.50803929747    0.00000000000    8.48996751602
Ti    0.00000000000    7.40273383991   -7.78013072764
Ti    0.00000000000   -7.40273383991   -7.78013072764
Ti   -3.25401964873    8.88328060789    5.23594786729
Ti    3.25401964873    8.88328060789    5.23594786729
Ti    3.25401964873   -8.88328060789    5.23594786729
Ti   -3.25401964873   -8.88328060789    5.23594786729
Ti   -9.76205894620    1.48054676798   -4.52611107891
Ti    9.76205894620    1.48054676798   -4.52611107891
Ti    9.76205894620   -1.48054676798   -4.52611107891
Ti   -9.76205894620   -1.48054676798   -4.52611107891
Ti   -9.76205894620    4.44164030394    1.98192821856
Ti    9.76205894620    4.44164030394    1.98192821856
Ti    9.76205894620   -4.44164030394    1.98192821856
Ti   -9.76205894620   -4.44164030394    1.98192821856
Ti    0.00000000000    0.00000000000  -11.03415037637
Ti   -3.25401964873   10.36382737587    1.98192821856
Ti    3.25401964873   10.36382737587    1.98192821856
Ti    3.25401964873  -10.36382737587    1.98192821856
Ti   -3.25401964873  -10.36382737587    1.98192821856
Ti   -6.50803929747    4.44164030394   -7.78013072764
Ti    6.50803929747    4.44164030394   -7.78013072764
Ti    6.50803929747   -4.44164030394   -7.78013072764
Ti   -6.50803929747   -4.44164030394   -7.78013072764
Ti   -9.76205894620    0.00000000000    5.23594786729
Ti    9.76205894620    0.00000000000    5.23594786729
Ti   -6.50803929747    2.96109353596    8.48996751602
Ti    6.50803929747    2.96109353596    8.48996751602
Ti    6.50803929747   -2.96109353596    8.48996751602
Ti   -6.50803929747   -2.96109353596    8.48996751602
Ti   -6.50803929747    7.40273383991    5.23594786729
Ti    6.50803929747    7.40273383991    5.23594786729
Ti    6.50803929747   -7.40273383991    5.23594786729
Ti   -6.50803929747   -7.40273383991    5.23594786729
Ti   -6.50803929747    8.88328060789    1.98192821856
Ti    6.50803929747    8.88328060789    1.98192821856
Ti    6.50803929747   -8.88328060789    1.98192821856
Ti   -6.50803929747   -8.88328060789    1.98192821856
Ti    0.00000000000    2.96109353596  -11.03415037637
Ti    0.00000000000   -2.96109353596  -11.03415037637
Ti   -9.76205894620    2.96109353596    5.23594786729
Ti    9.76205894620    2.96109353596    5.23594786729
Ti    9.76205894620   -2.96109353596    5.23594786729
Ti   -9.76205894620   -2.96109353596    5.23594786729
Ti   -9.76205894620    5.92218707193   -1.27209143018
Ti    9.76205894620    5.92218707193   -1.27209143018
Ti    9.76205894620   -5.92218707193   -1.27209143018
Ti   -9.76205894620   -5.92218707193   -1.27209143018
Ti   -3.25401964873    1.48054676798  -11.03415037637
Ti    3.25401964873    1.48054676798  -11.03415037637
Ti    3.25401964873   -1.48054676798  -11.03415037637
Ti   -3.25401964873   -1.48054676798  -11.03415037637
Ti    0.00000000000   10.36382737587    5.23594786729
Ti    0.00000000000  -10.36382737587    5.23594786729
Ti   -9.76205894620    4.44164030394   -4.52611107891
Ti    9.76205894620    4.44164030394   -4.52611107891
Ti    9.76205894620   -4.44164030394   -4.52611107891
Ti   -9.76205894620   -4.44164030394   -4.52611107891
Ti   -3.25401964873    7.40273383991    8.48996751602
Ti    3.25401964873    7.40273383991    8.48996751602
Ti    3.25401964873   -7.40273383991    8.48996751602
Ti   -3.25401964873   -7.40273383991    8.48996751602
Ti   -3.25401964873   10.36382737587   -4.52611107891
Ti    3.25401964873   10.36382737587   -4.52611107891
Ti    3.25401964873  -10.36382737587   -4.52611107891
Ti   -3.25401964873  -10.36382737587   -4.52611107891
Ti    0.00000000000    1.48054676798   11.74398716476
Ti    0.00000000000   -1.48054676798   11.74398716476
Ti   -6.50803929747    8.88328060789   -4.52611107891
Ti    6.50803929747    8.88328060789   -4.52611107891
Ti    6.50803929747   -8.88328060789   -4.52611107891
Ti   -6.50803929747   -8.88328060789   -4.52611107891
Ti    0.00000000000   11.84437414385    1.98192821856
Ti    0.00000000000  -11.84437414385    1.98192821856
Ti   -3.25401964873    0.00000000000   11.74398716476
Ti    3.25401964873    0.00000000000   11.74398716476
Ti   -6.50803929747    5.92218707193    8.48996751602
Ti    6.50803929747    5.92218707193    8.48996751602
Ti    6.50803929747   -5.92218707193    8.48996751602
Ti   -6.50803929747   -5.92218707193    8.48996751602
Ti   -3.25401964873    8.88328060789   -7.78013072764
Ti    3.25401964873    8.88328060789   -7.78013072764
Ti    3.25401964873   -8.88328060789   -7.78013072764
Ti   -3.25401964873   -8.88328060789   -7.78013072764
Ti    0.00000000000    8.88328060789    8.48996751602
Ti    0.00000000000   -8.88328060789    8.48996751602
Ti   -3.25401964873    4.44164030394  -11.03415037637
Ti    3.25401964873    4.44164030394  -11.03415037637
Ti    3.25401964873   -4.44164030394  -11.03415037637
Ti   -3.25401964873   -4.44164030394  -11.03415037637
Ti   -3.25401964873   11.84437414385   -1.27209143018
Ti    3.25401964873   11.84437414385   -1.27209143018
Ti    3.25401964873  -11.84437414385   -1.27209143018
Ti   -3.25401964873  -11.84437414385   -1.27209143018
Ti    0.00000000000    5.92218707193  -11.03415037637
Ti    0.00000000000   -5.92218707193  -11.03415037637
Ti   -3.25401964873    2.96109353596   11.74398716476
Ti    3.25401964873    2.96109353596   11.74398716476
Ti    3.25401964873   -2.96109353596   11.74398716476
Ti   -3.25401964873   -2.96109353596   11.74398716476
Ti    0.00000000000    4.44164030394   11.74398716476
Ti    0.00000000000   -4.44164030394   11.74398716476
Ti   -6.50803929747    7.40273383991   -7.78013072764
Ti    6.50803929747    7.40273383991   -7.78013072764
Ti    6.50803929747   -7.40273383991   -7.78013072764
Ti   -6.50803929747   -7.40273383991   -7.78013072764
Ti    0.00000000000   11.84437414385   -4.52611107891
Ti    0.00000000000  -11.84437414385   -4.52611107891
Ti    0.00000000000   10.36382737587   -7.78013072764
Ti    0.00000000000  -10.36382737587   -7.78013072764
Ti   -3.25401964873    5.92218707193   11.74398716476
Ti    3.25401964873    5.92218707193   11.74398716476
Ti    3.25401964873   -5.92218707193   11.74398716476
Ti   -3.25401964873   -5.92218707193   11.74398716476
Ti    0.00000000000    7.40273383991   11.74398716476
Ti    0.00000000000   -7.40273383991   11.74398716476

ghost=serialno
1

qmmm=Amber
pointcharges
10751
     -3.25401964873    2.96109353596   -1.27209143018    4.00000000000
      3.25401964873    2.96109353596   -1.27209143018    4.00000000000
      3.25401964873   -2.96109353596   -1.27209143018    4.00000000000
     -3.25401964873   -2.96109353596   -1.27209143018    4.00000000000
     -3.25401964873    2.96109353596   -3.25401964873   -2.00000000000
      3.25401964873    2.96109353596   -3.25401964873   -2.00000000000
      3.25401964873   -2.96109353596   -3.25401964873   -2.00000000000
     -3.25401964873   -2.96109353596   -3.25401964873   -2.00000000000
     -3.25401964873    1.48054676798   -4.52611107891    4.00000000000
      3.25401964873    1.48054676798   -4.52611107891    4.00000000000
      3.25401964873   -1.48054676798   -4.52611107891    4.00000000000
     -3.25401964873   -1.48054676798   -4.52611107891    4.00000000000
     -3.25401964873    4.44164030394    1.98192821856    4.00000000000
      3.25401964873    4.44164030394    1.98192821856    4.00000000000
      3.25401964873   -4.44164030394    1.98192821856    4.00000000000
     -3.25401964873   -4.44164030394    1.98192821856    4.00000000000
     -3.25401964873    0.00000000000    5.23594786729    4.00000000000
      3.25401964873    0.00000000000    5.23594786729    4.00000000000
      0.00000000000    5.92218707193    1.98192821856    4.00000000000
      0.00000000000   -5.92218707193    1.98192821856    4.00000000000
     -4.52611107891    4.44164030394   -1.27209143018   -2.00000000000
      4.52611107891    4.44164030394   -1.27209143018   -2.00000000000
      4.52611107891   -4.44164030394   -1.27209143018   -2.00000000000
     -4.52611107891   -4.44164030394   -1.27209143018   -2.00000000000
     -6.50803929747    0.00000000000    0.00000000000   -2.00000000000
      6.50803929747    0.00000000000    0.00000000000   -2.00000000000
     -3.25401964873    0.00000000000   -5.79820250908   -2.00000000000
      3.25401964873    0.00000000000   -5.79820250908   -2.00000000000
     -3.25401964873    5.92218707193    0.70983678838   -2.00000000000
      3.25401964873    5.92218707193    0.70983678838   -2.00000000000
      3.25401964873   -5.92218707193    0.70983678838   -2.00000000000
     -3.25401964873   -5.92218707193    0.70983678838   -2.00000000000
     -6.50803929747    1.48054676798   -1.27209143018    4.00000000000
      6.50803929747    1.48054676798   -1.27209143018    4.00000000000
      6.50803929747   -1.48054676798   -1.27209143018    4.00000000000
     -6.50803929747   -1.48054676798   -1.27209143018    4.00000000000
     -6.50803929747    0.00000000000    1.98192821856    4.00000000000
      6.50803929747    0.00000000000    1.98192821856    4.00000000000
     -3.25401964873    2.96109353596    5.23594786729    4.00000000000
      3.25401964873    2.96109353596    5.23594786729    4.00000000000
      3.25401964873   -2.96109353596    5.23594786729    4.00000000000
     -3.25401964873   -2.96109353596    5.23594786729    4.00000000000
      0.00000000000    4.44164030394    5.23594786729    4.00000000000
      0.00000000000   -4.44164030394    5.23594786729    4.00000000000
     -3.25401964873    5.92218707193   -1.27209143018    4.00000000000
      3.25401964873    5.92218707193   -1.27209143018    4.00000000000
      3.25401964873   -5.92218707193   -1.27209143018    4.00000000000
     -3.25401964873   -5.92218707193   -1.27209143018    4.00000000000
     -6.50803929747    0.00000000000   -2.54418286035   -2.00000000000
      6.50803929747    0.00000000000   -2.54418286035   -2.00000000000
     -4.52611107891    1.48054676798    5.23594786729   -2.00000000000
      4.52611107891    1.48054676798    5.23594786729   -2.00000000000
      4.52611107891   -1.48054676798    5.23594786729   -2.00000000000
     -4.52611107891   -1.48054676798    5.23594786729   -2.00000000000
     -5.23594786729    1.48054676798   -4.52611107891   -2.00000000000
      5.23594786729    1.48054676798   -4.52611107891   -2.00000000000
      5.23594786729   -1.48054676798   -4.52611107891   -2.00000000000
     -5.23594786729   -1.48054676798   -4.52611107891   -2.00000000000
     -0.00000000000    5.92218707193    3.96385643712   -2.00000000000
     -0.00000000000   -5.92218707193    3.96385643712   -2.00000000000
     -3.25401964873    4.44164030394   -4.52611107891    4.00000000000
      3.25401964873    4.44164030394   -4.52611107891    4.00000000000
      3.25401964873   -4.44164030394   -4.52611107891    4.00000000000
     -3.25401964873   -4.44164030394   -4.52611107891    4.00000000000
     -1.98192821856    4.44164030394    5.23594786729   -2.00000000000
      1.98192821856    4.44164030394    5.23594786729   -2.00000000000
      1.98192821856   -4.44164030394    5.23594786729   -2.00000000000
     -1.98192821856   -4.44164030394    5.23594786729   -2.00000000000
     -5.23594786729    4.44164030394    1.98192821856   -2.00000000000
      5.23594786729    4.44164030394    1.98192821856   -2.00000000000
      5.23594786729   -4.44164030394    1.98192821856   -2.00000000000
     -5.23594786729   -4.44164030394    1.98192821856   -2.00000000000
     -6.50803929747    2.96109353596    0.00000000000   -2.00000000000
      6.50803929747    2.96109353596    0.00000000000   -2.00000000000
      6.50803929747   -2.96109353596    0.00000000000   -2.00000000000
     -6.50803929747   -2.96109353596    0.00000000000   -2.00000000000
     -3.25401964873    2.96109353596   -5.79820250908   -2.00000000000
      3.25401964873    2.96109353596   -5.79820250908   -2.00000000000
      3.25401964873   -2.96109353596   -5.79820250908   -2.00000000000
     -3.25401964873   -2.96109353596   -5.79820250908   -2.00000000000
     -6.50803929747    2.96109353596    1.98192821856    4.00000000000
      6.50803929747    2.96109353596    1.98192821856    4.00000000000
      6.50803929747   -2.96109353596    1.98192821856    4.00000000000
     -6.50803929747   -2.96109353596    1.98192821856    4.00000000000
      0.00000000000    5.92218707193   -4.52611107891    4.00000000000
      0.00000000000   -5.92218707193   -4.52611107891    4.00000000000
     -3.25401964873    5.92218707193    3.25401964873   -2.00000000000
      3.25401964873    5.92218707193    3.25401964873   -2.00000000000
      3.25401964873   -5.92218707193    3.25401964873   -2.00000000000
     -3.25401964873   -5.92218707193    3.25401964873   -2.00000000000
     -3.25401964873    5.92218707193   -3.25401964873   -2.00000000000
      3.25401964873    5.92218707193   -3.25401964873   -2.00000000000
      3.25401964873   -5.92218707193   -3.25401964873   -2.00000000000
     -3.25401964873   -5.92218707193   -3.25401964873   -2.00000000000
      0.00000000000    7.40273383991   -1.27209143018    4.00000000000
      0.00000000000   -7.40273383991   -1.27209143018    4.00000000000
     -6.50803929747    2.96109353596   -2.54418286035   -2.00000000000
      6.50803929747    2.96109353596   -2.54418286035   -2.00000000000
      6.50803929747   -2.96109353596   -2.54418286035   -2.00000000000
     -6.50803929747   -2.96109353596   -2.54418286035   -2.00000000000
     -6.50803929747    0.00000000000    3.96385643712   -2.00000000000
      6.50803929747    0.00000000000    3.96385643712   -2.00000000000
     -1.27209143018    7.40273383991    1.98192821856   -2.00000000000
      1.27209143018    7.40273383991    1.98192821856   -2.00000000000
      1.27209143018   -7.40273383991    1.98192821856   -2.00000000000
     -1.27209143018   -7.40273383991    1.98192821856   -2.00000000000
     -1.98192821856    7.40273383991   -1.27209143018   -2.00000000000
      1.98192821856    7.40273383991   -1.27209143018   -2.00000000000
      1.98192821856   -7.40273383991   -1.27209143018   -2.00000000000
     -1.98192821856   -7.40273383991   -1.27209143018   -2.00000000000
     -3.25401964873    0.00000000000    7.21787608585   -2.00000000000
      3.25401964873    0.00000000000    7.21787608585   -2.00000000000
      0.00000000000    1.48054676798   -7.78013072764    4.00000000000
      0.00000000000   -1.48054676798   -7.78013072764    4.00000000000
     -6.50803929747    0.00000000000   -4.52611107891    4.00000000000
      6.50803929747    0.00000000000   -4.52611107891    4.00000000000
     -6.50803929747    4.44164030394   -1.27209143018    4.00000000000
      6.50803929747    4.44164030394   -1.27209143018    4.00000000000
      6.50803929747   -4.44164030394   -1.27209143018    4.00000000000
     -6.50803929747   -4.44164030394   -1.27209143018    4.00000000000
     -7.78013072764    1.48054676798    1.98192821856   -2.00000000000
      7.78013072764    1.48054676798    1.98192821856   -2.00000000000
      7.78013072764   -1.48054676798    1.98192821856   -2.00000000000
     -7.78013072764   -1.48054676798    1.98192821856   -2.00000000000
     -1.98192821856    1.48054676798   -7.78013072764   -2.00000000000
      1.98192821856    1.48054676798   -7.78013072764   -2.00000000000
      1.98192821856   -1.48054676798   -7.78013072764   -2.00000000000
     -1.98192821856   -1.48054676798   -7.78013072764   -2.00000000000
     -6.50803929747    2.96109353596    3.96385643712   -2.00000000000
      6.50803929747    2.96109353596    3.96385643712   -2.00000000000
      6.50803929747   -2.96109353596    3.96385643712   -2.00000000000
     -6.50803929747   -2.96109353596    3.96385643712   -2.00000000000
     -4.52611107891    4.44164030394    5.23594786729   -2.00000000000
      4.52611107891    4.44164030394    5.23594786729   -2.00000000000
      4.52611107891   -4.44164030394    5.23594786729   -2.00000000000
     -4.52611107891   -4.44164030394    5.23594786729   -2.00000000000
     -5.23594786729    4.44164030394   -4.52611107891   -2.00000000000
      5.23594786729    4.44164030394   -4.52611107891   -2.00000000000
      5.23594786729   -4.44164030394   -4.52611107891   -2.00000000000
     -5.23594786729   -4.44164030394   -4.52611107891   -2.00000000000
     -3.25401964873    7.40273383991    1.98192821856    4.00000000000
      3.25401964873    7.40273383991    1.98192821856    4.00000000000
      3.25401964873   -7.40273383991    1.98192821856    4.00000000000
     -3.25401964873   -7.40273383991    1.98192821856    4.00000000000
     -3.25401964873    0.00000000000   -7.78013072764    4.00000000000
      3.25401964873    0.00000000000   -7.78013072764    4.00000000000
     -3.25401964873    2.96109353596    7.21787608585   -2.00000000000
      3.25401964873    2.96109353596    7.21787608585   -2.00000000000
      3.25401964873   -2.96109353596    7.21787608585   -2.00000000000
     -3.25401964873   -2.96109353596    7.21787608585   -2.00000000000
     -6.50803929747    2.96109353596   -4.52611107891    4.00000000000
      6.50803929747    2.96109353596   -4.52611107891    4.00000000000
      6.50803929747   -2.96109353596   -4.52611107891    4.00000000000
     -6.50803929747   -2.96109353596   -4.52611107891    4.00000000000
     -6.50803929747    1.48054676798    5.23594786729    4.00000000000
      6.50803929747    1.48054676798    5.23594786729    4.00000000000
      6.50803929747   -1.48054676798    5.23594786729    4.00000000000
     -6.50803929747   -1.48054676798    5.23594786729    4.00000000000
      0.00000000000    0.00000000000    8.48996751602    4.00000000000
     -3.25401964873    5.92218707193    5.23594786729    4.00000000000
      3.25401964873    5.92218707193    5.23594786729    4.00000000000
      3.25401964873   -5.92218707193    5.23594786729    4.00000000000
     -3.25401964873   -5.92218707193    5.23594786729    4.00000000000
     -1.27209143018    1.48054676798    8.48996751602   -2.00000000000
      1.27209143018    1.48054676798    8.48996751602   -2.00000000000
      1.27209143018   -1.48054676798    8.48996751602   -2.00000000000
     -1.27209143018   -1.48054676798    8.48996751602   -2.00000000000
     -8.48996751602    1.48054676798   -1.27209143018   -2.00000000000
      8.48996751602    1.48054676798   -1.27209143018   -2.00000000000
      8.48996751602   -1.48054676798   -1.27209143018   -2.00000000000
     -8.48996751602   -1.48054676798   -1.27209143018   -2.00000000000
     -4.52611107891    7.40273383991   -1.27209143018   -2.00000000000
      4.52611107891    7.40273383991   -1.27209143018   -2.00000000000
      4.52611107891   -7.40273383991   -1.27209143018   -2.00000000000
     -4.52611107891   -7.40273383991   -1.27209143018   -2.00000000000
     -1.27209143018    7.40273383991   -4.52611107891   -2.00000000000
      1.27209143018    7.40273383991   -4.52611107891   -2.00000000000
      1.27209143018   -7.40273383991   -4.52611107891   -2.00000000000
     -1.27209143018   -7.40273383991   -4.52611107891   -2.00000000000
      0.00000000000    5.92218707193    6.50803929747   -2.00000000000
      0.00000000000   -5.92218707193    6.50803929747   -2.00000000000
     -6.50803929747    5.92218707193    0.00000000000   -2.00000000000
      6.50803929747    5.92218707193    0.00000000000   -2.00000000000
      6.50803929747   -5.92218707193    0.00000000000   -2.00000000000
     -6.50803929747   -5.92218707193    0.00000000000   -2.00000000000
      0.00000000000    5.92218707193   -6.50803929747   -2.00000000000
      0.00000000000   -5.92218707193   -6.50803929747   -2.00000000000
      0.00000000000    8.88328060789    0.00000000000   -2.00000000000
      0.00000000000   -8.88328060789    0.00000000000   -2.00000000000
     -3.25401964873    5.92218707193   -5.79820250908   -2.00000000000
      3.25401964873    5.92218707193   -5.79820250908   -2.00000000000
      3.25401964873   -5.92218707193   -5.79820250908   -2.00000000000
     -3.25401964873   -5.92218707193   -5.79820250908   -2.00000000000
     -3.25401964873    2.96109353596   -7.78013072764    4.00000000000
      3.25401964873    2.96109353596   -7.78013072764    4.00000000000
      3.25401964873   -2.96109353596   -7.78013072764    4.00000000000
     -3.25401964873   -2.96109353596   -7.78013072764    4.00000000000
      0.00000000000    4.44164030394   -7.78013072764    4.00000000000
      0.00000000000   -4.44164030394   -7.78013072764    4.00000000000
      0.00000000000    2.96109353596    8.48996751602    4.00000000000
      0.00000000000   -2.96109353596    8.48996751602    4.00000000000
     -6.50803929747    5.92218707193    1.98192821856    4.00000000000
      6.50803929747    5.92218707193    1.98192821856    4.00000000000
      6.50803929747   -5.92218707193    1.98192821856    4.00000000000
     -6.50803929747   -5.92218707193    1.98192821856    4.00000000000
     -0.00000000000    0.00000000000   -9.05222215782   -2.00000000000
      0.00000000000    7.40273383991    5.23594786729    4.00000000000
      0.00000000000   -7.40273383991    5.23594786729    4.00000000000
      0.00000000000    8.88328060789    1.98192821856    4.00000000000
      0.00000000000   -8.88328060789    1.98192821856    4.00000000000
     -7.78013072764    1.48054676798   -4.52611107891   -2.00000000000
      7.78013072764    1.48054676798   -4.52611107891   -2.00000000000
      7.78013072764   -1.48054676798   -4.52611107891   -2.00000000000
     -7.78013072764   -1.48054676798   -4.52611107891   -2.00000000000
     -4.52611107891    1.48054676798   -7.78013072764   -2.00000000000
      4.52611107891    1.48054676798   -7.78013072764   -2.00000000000
      4.52611107891   -1.48054676798   -7.78013072764   -2.00000000000
     -4.52611107891   -1.48054676798   -7.78013072764   -2.00000000000
     -6.50803929747    5.92218707193   -2.54418286035   -2.00000000000
      6.50803929747    5.92218707193   -2.54418286035   -2.00000000000
      6.50803929747   -5.92218707193   -2.54418286035   -2.00000000000
     -6.50803929747   -5.92218707193   -2.54418286035   -2.00000000000
     -7.78013072764    4.44164030394    1.98192821856   -2.00000000000
      7.78013072764    4.44164030394    1.98192821856   -2.00000000000
      7.78013072764   -4.44164030394    1.98192821856   -2.00000000000
     -7.78013072764   -4.44164030394    1.98192821856   -2.00000000000
     -1.98192821856    4.44164030394   -7.78013072764   -2.00000000000
      1.98192821856    4.44164030394   -7.78013072764   -2.00000000000
      1.98192821856   -4.44164030394   -7.78013072764   -2.00000000000
     -1.98192821856   -4.44164030394   -7.78013072764   -2.00000000000
     -6.50803929747    0.00000000000    6.50803929747   -2.00000000000
      6.50803929747    0.00000000000    6.50803929747   -2.00000000000
     -6.50803929747    0.00000000000   -6.50803929747   -2.00000000000
      6.50803929747    0.00000000000   -6.50803929747   -2.00000000000
     -3.25401964873    1.48054676798    8.48996751602    4.00000000000
      3.25401964873    1.48054676798    8.48996751602    4.00000000000
      3.25401964873   -1.48054676798    8.48996751602    4.00000000000
     -3.25401964873   -1.48054676798    8.48996751602    4.00000000000
     -0.00000000000    8.88328060789   -2.54418286035   -2.00000000000
     -0.00000000000   -8.88328060789   -2.54418286035   -2.00000000000
     -3.25401964873    7.40273383991   -4.52611107891    4.00000000000
      3.25401964873    7.40273383991   -4.52611107891    4.00000000000
      3.25401964873   -7.40273383991   -4.52611107891    4.00000000000
     -3.25401964873   -7.40273383991   -4.52611107891    4.00000000000
     -1.98192821856    7.40273383991    5.23594786729   -2.00000000000
      1.98192821856    7.40273383991    5.23594786729   -2.00000000000
      1.98192821856   -7.40273383991    5.23594786729   -2.00000000000
     -1.98192821856   -7.40273383991    5.23594786729   -2.00000000000
     -5.23594786729    7.40273383991    1.98192821856   -2.00000000000
      5.23594786729    7.40273383991    1.98192821856   -2.00000000000
      5.23594786729   -7.40273383991    1.98192821856   -2.00000000000
     -5.23594786729   -7.40273383991    1.98192821856   -2.00000000000
     -6.50803929747    4.44164030394    5.23594786729    4.00000000000
      6.50803929747    4.44164030394    5.23594786729    4.00000000000
      6.50803929747   -4.44164030394    5.23594786729    4.00000000000
     -6.50803929747   -4.44164030394    5.23594786729    4.00000000000
     -3.25401964873    8.88328060789    0.70983678838   -2.00000000000
      3.25401964873    8.88328060789    0.70983678838   -2.00000000000
      3.25401964873   -8.88328060789    0.70983678838   -2.00000000000
     -3.25401964873   -8.88328060789    0.70983678838   -2.00000000000
     -0.00000000000    2.96109353596   -9.05222215782   -2.00000000000
     -0.00000000000   -2.96109353596   -9.05222215782   -2.00000000000
     -3.25401964873    8.88328060789   -1.27209143018    4.00000000000
      3.25401964873    8.88328060789   -1.27209143018    4.00000000000
      3.25401964873   -8.88328060789   -1.27209143018    4.00000000000
     -3.25401964873   -8.88328060789   -1.27209143018    4.00000000000
     -6.50803929747    5.92218707193    3.96385643712   -2.00000000000
      6.50803929747    5.92218707193    3.96385643712   -2.00000000000
      6.50803929747   -5.92218707193    3.96385643712   -2.00000000000
     -6.50803929747   -5.92218707193    3.96385643712   -2.00000000000
     -1.27209143018    4.44164030394    8.48996751602   -2.00000000000
      1.27209143018    4.44164030394    8.48996751602   -2.00000000000
      1.27209143018   -4.44164030394    8.48996751602   -2.00000000000
     -1.27209143018   -4.44164030394    8.48996751602   -2.00000000000
     -8.48996751602    4.44164030394   -1.27209143018   -2.00000000000
      8.48996751602    4.44164030394   -1.27209143018   -2.00000000000
      8.48996751602   -4.44164030394   -1.27209143018   -2.00000000000
     -8.48996751602   -4.44164030394   -1.27209143018   -2.00000000000
     -6.50803929747    2.96109353596    6.50803929747   -2.00000000000
      6.50803929747    2.96109353596    6.50803929747   -2.00000000000
      6.50803929747   -2.96109353596    6.50803929747   -2.00000000000
     -6.50803929747   -2.96109353596    6.50803929747   -2.00000000000
     -6.50803929747    2.96109353596   -6.50803929747   -2.00000000000
      6.50803929747    2.96109353596   -6.50803929747   -2.00000000000
      6.50803929747   -2.96109353596   -6.50803929747   -2.00000000000
     -6.50803929747   -2.96109353596   -6.50803929747   -2.00000000000
     -0.00000000000    8.88328060789    3.96385643712   -2.00000000000
     -0.00000000000   -8.88328060789    3.96385643712   -2.00000000000
     -9.76205894620    0.00000000000    0.70983678838   -2.00000000000
      9.76205894620    0.00000000000    0.70983678838   -2.00000000000
     -9.76205894620    0.00000000000   -1.27209143018    4.00000000000
      9.76205894620    0.00000000000   -1.27209143018    4.00000000000
     -3.25401964873    5.92218707193    7.21787608585   -2.00000000000
      3.25401964873    5.92218707193    7.21787608585   -2.00000000000
      3.25401964873   -5.92218707193    7.21787608585   -2.00000000000
     -3.25401964873   -5.92218707193    7.21787608585   -2.00000000000
     -6.50803929747    5.92218707193   -4.52611107891    4.00000000000
      6.50803929747    5.92218707193   -4.52611107891    4.00000000000
      6.50803929747   -5.92218707193   -4.52611107891    4.00000000000
     -6.50803929747   -5.92218707193   -4.52611107891    4.00000000000
     -6.50803929747    7.40273383991   -1.27209143018    4.00000000000
      6.50803929747    7.40273383991   -1.27209143018    4.00000000000
      6.50803929747   -7.40273383991   -1.27209143018    4.00000000000
     -6.50803929747   -7.40273383991   -1.27209143018    4.00000000000
      0.00000000000    8.88328060789   -4.52611107891    4.00000000000
      0.00000000000   -8.88328060789   -4.52611107891    4.00000000000
     -3.25401964873    8.88328060789    3.25401964873   -2.00000000000
      3.25401964873    8.88328060789    3.25401964873   -2.00000000000
      3.25401964873   -8.88328060789    3.25401964873   -2.00000000000
     -3.25401964873   -8.88328060789    3.25401964873   -2.00000000000
     -3.25401964873    8.88328060789   -3.25401964873   -2.00000000000
      3.25401964873    8.88328060789   -3.25401964873   -2.00000000000
      3.25401964873   -8.88328060789   -3.25401964873   -2.00000000000
     -3.25401964873   -8.88328060789   -3.25401964873   -2.00000000000
     -7.78013072764    4.44164030394   -4.52611107891   -2.00000000000
      7.78013072764    4.44164030394   -4.52611107891   -2.00000000000
      7.78013072764   -4.44164030394   -4.52611107891   -2.00000000000
     -7.78013072764   -4.44164030394   -4.52611107891   -2.00000000000
     -4.52611107891    4.44164030394   -7.78013072764   -2.00000000000
      4.52611107891    4.44164030394   -7.78013072764   -2.00000000000
      4.52611107891   -4.44164030394   -7.78013072764   -2.00000000000
     -4.52611107891   -4.44164030394   -7.78013072764   -2.00000000000
     -9.76205894620    1.48054676798    1.98192821856    4.00000000000
      9.76205894620    1.48054676798    1.98192821856    4.00000000000
      9.76205894620   -1.48054676798    1.98192821856    4.00000000000
     -9.76205894620   -1.48054676798    1.98192821856    4.00000000000
     -5.23594786729    1.48054676798    8.48996751602   -2.00000000000
      5.23594786729    1.48054676798    8.48996751602   -2.00000000000
      5.23594786729   -1.48054676798    8.48996751602   -2.00000000000
     -5.23594786729   -1.48054676798    8.48996751602   -2.00000000000
     -8.48996751602    1.48054676798    5.23594786729   -2.00000000000
      8.48996751602    1.48054676798    5.23594786729   -2.00000000000
      8.48996751602   -1.48054676798    5.23594786729   -2.00000000000
     -8.48996751602   -1.48054676798    5.23594786729   -2.00000000000
     -3.25401964873    4.44164030394    8.48996751602    4.00000000000
      3.25401964873    4.44164030394    8.48996751602    4.00000000000
      3.25401964873   -4.44164030394    8.48996751602    4.00000000000
     -3.25401964873   -4.44164030394    8.48996751602    4.00000000000
     -4.52611107891    7.40273383991    5.23594786729   -2.00000000000
      4.52611107891    7.40273383991    5.23594786729   -2.00000000000
      4.52611107891   -7.40273383991    5.23594786729   -2.00000000000
     -4.52611107891   -7.40273383991    5.23594786729   -2.00000000000
     -5.23594786729    7.40273383991   -4.52611107891   -2.00000000000
      5.23594786729    7.40273383991   -4.52611107891   -2.00000000000
      5.23594786729   -7.40273383991   -4.52611107891   -2.00000000000
     -5.23594786729   -7.40273383991   -4.52611107891   -2.00000000000
     -9.76205894620    2.96109353596    0.70983678838   -2.00000000000
      9.76205894620    2.96109353596    0.70983678838   -2.00000000000
      9.76205894620   -2.96109353596    0.70983678838   -2.00000000000
     -9.76205894620   -2.96109353596    0.70983678838   -2.00000000000
     -6.50803929747    1.48054676798   -7.78013072764    4.00000000000
      6.50803929747    1.48054676798   -7.78013072764    4.00000000000
      6.50803929747   -1.48054676798   -7.78013072764    4.00000000000
     -6.50803929747   -1.48054676798   -7.78013072764    4.00000000000
     -9.76205894620    2.96109353596   -1.27209143018    4.00000000000
      9.76205894620    2.96109353596   -1.27209143018    4.00000000000
      9.76205894620   -2.96109353596   -1.27209143018    4.00000000000
     -9.76205894620   -2.96109353596   -1.27209143018    4.00000000000
     -3.25401964873    0.00000000000    9.76205894620   -2.00000000000
      3.25401964873    0.00000000000    9.76205894620   -2.00000000000
     -9.76205894620    0.00000000000    3.25401964873   -2.00000000000
      9.76205894620    0.00000000000    3.25401964873   -2.00000000000
     -9.76205894620    0.00000000000   -3.25401964873   -2.00000000000
      9.76205894620    0.00000000000   -3.25401964873   -2.00000000000
     -3.25401964873    0.00000000000   -9.76205894620   -2.00000000000
      3.25401964873    0.00000000000   -9.76205894620   -2.00000000000
     -3.25401964873    5.92218707193   -7.78013072764    4.00000000000
      3.25401964873    5.92218707193   -7.78013072764    4.00000000000
      3.25401964873   -5.92218707193   -7.78013072764    4.00000000000
     -3.25401964873   -5.92218707193   -7.78013072764    4.00000000000
      0.00000000000    5.92218707193    8.48996751602    4.00000000000
      0.00000000000   -5.92218707193    8.48996751602    4.00000000000
      0.00000000000   10.36382737587   -1.27209143018    4.00000000000
      0.00000000000  -10.36382737587   -1.27209143018    4.00000000000
     -0.00000000000    0.00000000000   10.47189573458   -2.00000000000
     -1.27209143018   10.36382737587    1.98192821856   -2.00000000000
      1.27209143018   10.36382737587    1.98192821856   -2.00000000000
      1.27209143018  -10.36382737587    1.98192821856   -2.00000000000
     -1.27209143018  -10.36382737587    1.98192821856   -2.00000000000
     -1.98192821856   10.36382737587   -1.27209143018   -2.00000000000
      1.98192821856   10.36382737587   -1.27209143018   -2.00000000000
      1.98192821856  -10.36382737587   -1.27209143018   -2.00000000000
     -1.98192821856  -10.36382737587   -1.27209143018   -2.00000000000
     -6.50803929747    0.00000000000    8.48996751602    4.00000000000
      6.50803929747    0.00000000000    8.48996751602    4.00000000000
     -3.25401964873    2.96109353596    9.76205894620   -2.00000000000
      3.25401964873    2.96109353596    9.76205894620   -2.00000000000
      3.25401964873   -2.96109353596    9.76205894620   -2.00000000000
     -3.25401964873   -2.96109353596    9.76205894620   -2.00000000000
     -9.76205894620    2.96109353596    3.25401964873   -2.00000000000
      9.76205894620    2.96109353596    3.25401964873   -2.00000000000
      9.76205894620   -2.96109353596    3.25401964873   -2.00000000000
     -9.76205894620   -2.96109353596    3.25401964873   -2.00000000000
     -9.76205894620    2.96109353596   -3.25401964873   -2.00000000000
      9.76205894620    2.96109353596   -3.25401964873   -2.00000000000
      9.76205894620   -2.96109353596   -3.25401964873   -2.00000000000
     -9.76205894620   -2.96109353596   -3.25401964873   -2.00000000000
     -3.25401964873    2.96109353596   -9.76205894620   -2.00000000000
      3.25401964873    2.96109353596   -9.76205894620   -2.00000000000
      3.25401964873   -2.96109353596   -9.76205894620   -2.00000000000
     -3.25401964873   -2.96109353596   -9.76205894620   -2.00000000000
      0.00000000000    7.40273383991   -7.78013072764    4.00000000000
      0.00000000000   -7.40273383991   -7.78013072764    4.00000000000
     -3.25401964873    8.88328060789    5.23594786729    4.00000000000
      3.25401964873    8.88328060789    5.23594786729    4.00000000000
      3.25401964873   -8.88328060789    5.23594786729    4.00000000000
     -3.25401964873   -8.88328060789    5.23594786729    4.00000000000
     -0.00000000000    5.92218707193   -9.05222215782   -2.00000000000
     -0.00000000000   -5.92218707193   -9.05222215782   -2.00000000000
     -9.76205894620    1.48054676798   -4.52611107891    4.00000000000
      9.76205894620    1.48054676798   -4.52611107891    4.00000000000
      9.76205894620   -1.48054676798   -4.52611107891    4.00000000000
     -9.76205894620   -1.48054676798   -4.52611107891    4.00000000000
     -0.00000000000    2.96109353596   10.47189573458   -2.00000000000
     -0.00000000000   -2.96109353596   10.47189573458   -2.00000000000
     -9.76205894620    4.44164030394    1.98192821856    4.00000000000
      9.76205894620    4.44164030394    1.98192821856    4.00000000000
      9.76205894620   -4.44164030394    1.98192821856    4.00000000000
     -9.76205894620   -4.44164030394    1.98192821856    4.00000000000
     -5.23594786729    4.44164030394    8.48996751602   -2.00000000000
      5.23594786729    4.44164030394    8.48996751602   -2.00000000000
      5.23594786729   -4.44164030394    8.48996751602   -2.00000000000
     -5.23594786729   -4.44164030394    8.48996751602   -2.00000000000
     -8.48996751602    4.44164030394    5.23594786729   -2.00000000000
      8.48996751602    4.44164030394    5.23594786729   -2.00000000000
      8.48996751602   -4.44164030394    5.23594786729   -2.00000000000
     -8.48996751602   -4.44164030394    5.23594786729   -2.00000000000
     -7.78013072764    7.40273383991    1.98192821856   -2.00000000000
      7.78013072764    7.40273383991    1.98192821856   -2.00000000000
      7.78013072764   -7.40273383991    1.98192821856   -2.00000000000
     -7.78013072764   -7.40273383991    1.98192821856   -2.00000000000
     -1.98192821856    7.40273383991   -7.78013072764   -2.00000000000
      1.98192821856    7.40273383991   -7.78013072764   -2.00000000000
      1.98192821856   -7.40273383991   -7.78013072764   -2.00000000000
     -1.98192821856   -7.40273383991   -7.78013072764   -2.00000000000
     -6.50803929747    5.92218707193    6.50803929747   -2.00000000000
      6.50803929747    5.92218707193    6.50803929747   -2.00000000000
      6.50803929747   -5.92218707193    6.50803929747   -2.00000000000
     -6.50803929747   -5.92218707193    6.50803929747   -2.00000000000
     -6.50803929747    5.92218707193   -6.50803929747   -2.00000000000
      6.50803929747    5.92218707193   -6.50803929747   -2.00000000000
      6.50803929747   -5.92218707193   -6.50803929747   -2.00000000000
     -6.50803929747   -5.92218707193   -6.50803929747   -2.00000000000
      0.00000000000    8.88328060789    6.50803929747   -2.00000000000
      0.00000000000   -8.88328060789    6.50803929747   -2.00000000000
     -6.50803929747    8.88328060789    0.00000000000   -2.00000000000
      6.50803929747    8.88328060789    0.00000000000   -2.00000000000
      6.50803929747   -8.88328060789    0.00000000000   -2.00000000000
     -6.50803929747   -8.88328060789    0.00000000000   -2.00000000000
      0.00000000000    8.88328060789   -6.50803929747   -2.00000000000
      0.00000000000   -8.88328060789   -6.50803929747   -2.00000000000
      0.00000000000    0.00000000000  -11.03415037637    4.00000000000
     -3.25401964873   10.36382737587    1.98192821856    4.00000000000
      3.25401964873   10.36382737587    1.98192821856    4.00000000000
      3.25401964873  -10.36382737587    1.98192821856    4.00000000000
     -3.25401964873  -10.36382737587    1.98192821856    4.00000000000
     -6.50803929747    4.44164030394   -7.78013072764    4.00000000000
      6.50803929747    4.44164030394   -7.78013072764    4.00000000000
      6.50803929747   -4.44164030394   -7.78013072764    4.00000000000
     -6.50803929747   -4.44164030394   -7.78013072764    4.00000000000
     -9.76205894620    0.00000000000    5.23594786729    4.00000000000
      9.76205894620    0.00000000000    5.23594786729    4.00000000000
     -3.25401964873    8.88328060789   -5.79820250908   -2.00000000000
      3.25401964873    8.88328060789   -5.79820250908   -2.00000000000
      3.25401964873   -8.88328060789   -5.79820250908   -2.00000000000
     -3.25401964873   -8.88328060789   -5.79820250908   -2.00000000000
     -6.50803929747    2.96109353596    8.48996751602    4.00000000000
      6.50803929747    2.96109353596    8.48996751602    4.00000000000
      6.50803929747   -2.96109353596    8.48996751602    4.00000000000
     -6.50803929747   -2.96109353596    8.48996751602    4.00000000000
     -6.50803929747    0.00000000000   -9.05222215782   -2.00000000000
      6.50803929747    0.00000000000   -9.05222215782   -2.00000000000
     -6.50803929747    7.40273383991    5.23594786729    4.00000000000
      6.50803929747    7.40273383991    5.23594786729    4.00000000000
      6.50803929747   -7.40273383991    5.23594786729    4.00000000000
     -6.50803929747   -7.40273383991    5.23594786729    4.00000000000
     -6.50803929747    8.88328060789    1.98192821856    4.00000000000
      6.50803929747    8.88328060789    1.98192821856    4.00000000000
      6.50803929747   -8.88328060789    1.98192821856    4.00000000000
     -6.50803929747   -8.88328060789    1.98192821856    4.00000000000
    -11.03415037637    1.48054676798   -1.27209143018   -2.00000000000
     11.03415037637    1.48054676798   -1.27209143018   -2.00000000000
     11.03415037637   -1.48054676798   -1.27209143018   -2.00000000000
    -11.03415037637   -1.48054676798   -1.27209143018   -2.00000000000
     -1.27209143018    1.48054676798  -11.03415037637   -2.00000000000
      1.27209143018    1.48054676798  -11.03415037637   -2.00000000000
      1.27209143018   -1.48054676798  -11.03415037637   -2.00000000000
     -1.27209143018   -1.48054676798  -11.03415037637   -2.00000000000
     -6.50803929747    8.88328060789   -2.54418286035   -2.00000000000
      6.50803929747    8.88328060789   -2.54418286035   -2.00000000000
      6.50803929747   -8.88328060789   -2.54418286035   -2.00000000000
     -6.50803929747   -8.88328060789   -2.54418286035   -2.00000000000
     -1.27209143018    7.40273383991    8.48996751602   -2.00000000000
      1.27209143018    7.40273383991    8.48996751602   -2.00000000000
      1.27209143018   -7.40273383991    8.48996751602   -2.00000000000
     -1.27209143018   -7.40273383991    8.48996751602   -2.00000000000
     -9.76205894620    0.00000000000   -5.79820250908   -2.00000000000
      9.76205894620    0.00000000000   -5.79820250908   -2.00000000000
     -4.52611107891   10.36382737587   -1.27209143018   -2.00000000000
      4.52611107891   10.36382737587   -1.27209143018   -2.00000000000
      4.52611107891  -10.36382737587   -1.27209143018   -2.00000000000
     -4.52611107891  -10.36382737587   -1.27209143018   -2.00000000000
     -1.27209143018   10.36382737587   -4.52611107891   -2.00000000000
      1.27209143018   10.36382737587   -4.52611107891   -2.00000000000
      1.27209143018  -10.36382737587   -4.52611107891   -2.00000000000
     -1.27209143018  -10.36382737587   -4.52611107891   -2.00000000000
      0.00000000000    2.96109353596  -11.03415037637    4.00000000000
      0.00000000000   -2.96109353596  -11.03415037637    4.00000000000
     -9.76205894620    5.92218707193    0.70983678838   -2.00000000000
      9.76205894620    5.92218707193    0.70983678838   -2.00000000000
      9.76205894620   -5.92218707193    0.70983678838   -2.00000000000
     -9.76205894620   -5.92218707193    0.70983678838   -2.00000000000
     -9.76205894620    2.96109353596    5.23594786729    4.00000000000
      9.76205894620    2.96109353596    5.23594786729    4.00000000000
      9.76205894620   -2.96109353596    5.23594786729    4.00000000000
     -9.76205894620   -2.96109353596    5.23594786729    4.00000000000
     -9.76205894620    5.92218707193   -1.27209143018    4.00000000000
      9.76205894620    5.92218707193   -1.27209143018    4.00000000000
      9.76205894620   -5.92218707193   -1.27209143018    4.00000000000
     -9.76205894620   -5.92218707193   -1.27209143018    4.00000000000
     -6.50803929747    2.96109353596   -9.05222215782   -2.00000000000
      6.50803929747    2.96109353596   -9.05222215782   -2.00000000000
      6.50803929747   -2.96109353596   -9.05222215782   -2.00000000000
     -6.50803929747   -2.96109353596   -9.05222215782   -2.00000000000
     -3.25401964873    1.48054676798  -11.03415037637    4.00000000000
      3.25401964873    1.48054676798  -11.03415037637    4.00000000000
      3.25401964873   -1.48054676798  -11.03415037637    4.00000000000
     -3.25401964873   -1.48054676798  -11.03415037637    4.00000000000
     -7.78013072764    1.48054676798    8.48996751602   -2.00000000000
      7.78013072764    1.48054676798    8.48996751602   -2.00000000000
      7.78013072764   -1.48054676798    8.48996751602   -2.00000000000
     -7.78013072764   -1.48054676798    8.48996751602   -2.00000000000
      0.00000000000   10.36382737587    5.23594786729    4.00000000000
      0.00000000000  -10.36382737587    5.23594786729    4.00000000000
     -9.76205894620    4.44164030394   -4.52611107891    4.00000000000
      9.76205894620    4.44164030394   -4.52611107891    4.00000000000
      9.76205894620   -4.44164030394   -4.52611107891    4.00000000000
     -9.76205894620   -4.44164030394   -4.52611107891    4.00000000000
     -4.52611107891    7.40273383991   -7.78013072764   -2.00000000000
      4.52611107891    7.40273383991   -7.78013072764   -2.00000000000
      4.52611107891   -7.40273383991   -7.78013072764   -2.00000000000
     -4.52611107891   -7.40273383991   -7.78013072764   -2.00000000000
     -6.50803929747    8.88328060789    3.96385643712   -2.00000000000
      6.50803929747    8.88328060789    3.96385643712   -2.00000000000
      6.50803929747   -8.88328060789    3.96385643712   -2.00000000000
     -6.50803929747   -8.88328060789    3.96385643712   -2.00000000000
     -3.25401964873    7.40273383991    8.48996751602    4.00000000000
      3.25401964873    7.40273383991    8.48996751602    4.00000000000
      3.25401964873   -7.40273383991    8.48996751602    4.00000000000
     -3.25401964873   -7.40273383991    8.48996751602    4.00000000000
     -3.25401964873   10.36382737587   -4.52611107891    4.00000000000
      3.25401964873   10.36382737587   -4.52611107891    4.00000000000
      3.25401964873  -10.36382737587   -4.52611107891    4.00000000000
     -3.25401964873  -10.36382737587   -4.52611107891    4.00000000000
     -1.98192821856   10.36382737587    5.23594786729   -2.00000000000
      1.98192821856   10.36382737587    5.23594786729   -2.00000000000
      1.98192821856  -10.36382737587    5.23594786729   -2.00000000000
     -1.98192821856  -10.36382737587    5.23594786729   -2.00000000000
      0.00000000000    1.48054676798   11.74398716476    4.00000000000
      0.00000000000   -1.48054676798   11.74398716476    4.00000000000
      0.00000000000   11.84437414385    0.00000000000   -2.00000000000
      0.00000000000  -11.84437414385    0.00000000000   -2.00000000000
     -3.25401964873    5.92218707193    9.76205894620   -2.00000000000
      3.25401964873    5.92218707193    9.76205894620   -2.00000000000
      3.25401964873   -5.92218707193    9.76205894620   -2.00000000000
     -3.25401964873   -5.92218707193    9.76205894620   -2.00000000000
     -9.76205894620    5.92218707193    3.25401964873   -2.00000000000
      9.76205894620    5.92218707193    3.25401964873   -2.00000000000
      9.76205894620   -5.92218707193    3.25401964873   -2.00000000000
     -9.76205894620   -5.92218707193    3.25401964873   -2.00000000000
     -3.25401964873    5.92218707193   -9.76205894620   -2.00000000000
      3.25401964873    5.92218707193   -9.76205894620   -2.00000000000
      3.25401964873   -5.92218707193   -9.76205894620   -2.00000000000
     -3.25401964873   -5.92218707193   -9.76205894620   -2.00000000000
     -3.25401964873    8.88328060789    7.21787608585   -2.00000000000
      3.25401964873    8.88328060789    7.21787608585   -2.00000000000
      3.25401964873   -8.88328060789    7.21787608585   -2.00000000000
     -3.25401964873   -8.88328060789    7.21787608585   -2.00000000000
     -6.50803929747    8.88328060789   -4.52611107891    4.00000000000
      6.50803929747    8.88328060789   -4.52611107891    4.00000000000
      6.50803929747   -8.88328060789   -4.52611107891    4.00000000000
     -6.50803929747   -8.88328060789   -4.52611107891    4.00000000000
     -1.27209143018    4.44164030394  -11.03415037637   -2.00000000000
      1.27209143018    4.44164030394  -11.03415037637   -2.00000000000
      1.27209143018   -4.44164030394  -11.03415037637   -2.00000000000
     -1.27209143018   -4.44164030394  -11.03415037637   -2.00000000000
     -1.98192821856    1.48054676798   11.74398716476   -2.00000000000
      1.98192821856    1.48054676798   11.74398716476   -2.00000000000
      1.98192821856   -1.48054676798   11.74398716476   -2.00000000000
     -1.98192821856   -1.48054676798   11.74398716476   -2.00000000000
    -11.74398716476    1.48054676798    1.98192821856   -2.00000000000
     11.74398716476    1.48054676798    1.98192821856   -2.00000000000
     11.74398716476   -1.48054676798    1.98192821856   -2.00000000000
    -11.74398716476   -1.48054676798    1.98192821856   -2.00000000000
      0.00000000000   11.84437414385    1.98192821856    4.00000000000
      0.00000000000  -11.84437414385    1.98192821856    4.00000000000
     -0.00000000000    5.92218707193   10.47189573458   -2.00000000000
     -0.00000000000   -5.92218707193   10.47189573458   -2.00000000000
     -0.00000000000   11.84437414385   -2.54418286035   -2.00000000000
     -0.00000000000  -11.84437414385   -2.54418286035   -2.00000000000
     -3.25401964873    0.00000000000   11.74398716476    4.00000000000
      3.25401964873    0.00000000000   11.74398716476    4.00000000000
     -6.50803929747    5.92218707193    8.48996751602    4.00000000000
      6.50803929747    5.92218707193    8.48996751602    4.00000000000
      6.50803929747   -5.92218707193    8.48996751602    4.00000000000
     -6.50803929747   -5.92218707193    8.48996751602    4.00000000000
     -3.25401964873    8.88328060789   -7.78013072764    4.00000000000
      3.25401964873    8.88328060789   -7.78013072764    4.00000000000
      3.25401964873   -8.88328060789   -7.78013072764    4.00000000000
     -3.25401964873   -8.88328060789   -7.78013072764    4.00000000000
      0.00000000000    8.88328060789    8.48996751602    4.00000000000
      0.00000000000   -8.88328060789    8.48996751602    4.00000000000
    -11.03415037637    1.48054676798    5.23594786729   -2.00000000000
     11.03415037637    1.48054676798    5.23594786729   -2.00000000000
     11.03415037637   -1.48054676798    5.23594786729   -2.00000000000
    -11.03415037637   -1.48054676798    5.23594786729   -2.00000000000
     -3.25401964873   11.84437414385    0.70983678838   -2.00000000000
      3.25401964873   11.84437414385    0.70983678838   -2.00000000000
      3.25401964873  -11.84437414385    0.70983678838   -2.00000000000
     -3.25401964873  -11.84437414385    0.70983678838   -2.00000000000
     -3.25401964873    4.44164030394  -11.03415037637    4.00000000000
      3.25401964873    4.44164030394  -11.03415037637    4.00000000000
      3.25401964873   -4.44164030394  -11.03415037637    4.00000000000
     -3.25401964873   -4.44164030394  -11.03415037637    4.00000000000
     -3.25401964873   11.84437414385   -1.27209143018    4.00000000000
      3.25401964873   11.84437414385   -1.27209143018    4.00000000000
      3.25401964873  -11.84437414385   -1.27209143018    4.00000000000
     -3.25401964873  -11.84437414385   -1.27209143018    4.00000000000
      0.00000000000    5.92218707193  -11.03415037637    4.00000000000
      0.00000000000   -5.92218707193  -11.03415037637    4.00000000000
     -3.25401964873    2.96109353596   11.74398716476    4.00000000000
      3.25401964873    2.96109353596   11.74398716476    4.00000000000
      3.25401964873   -2.96109353596   11.74398716476    4.00000000000
     -3.25401964873   -2.96109353596   11.74398716476    4.00000000000
      0.00000000000    4.44164030394   11.74398716476    4.00000000000
      0.00000000000   -4.44164030394   11.74398716476    4.00000000000
     -6.50803929747    7.40273383991   -7.78013072764    4.00000000000
      6.50803929747    7.40273383991   -7.78013072764    4.00000000000
      6.50803929747   -7.40273383991   -7.78013072764    4.00000000000
     -6.50803929747   -7.40273383991   -7.78013072764    4.00000000000
     -4.52611107891    1.48054676798   11.74398716476   -2.00000000000
      4.52611107891    1.48054676798   11.74398716476   -2.00000000000
      4.52611107891   -1.48054676798   11.74398716476   -2.00000000000
     -4.52611107891   -1.48054676798   11.74398716476   -2.00000000000
      0.00000000000   11.84437414385   -4.52611107891    4.00000000000
      0.00000000000  -11.84437414385   -4.52611107891    4.00000000000
     -0.00000000000    8.88328060789   -9.05222215782   -2.00000000000
     -0.00000000000   -8.88328060789   -9.05222215782   -2.00000000000
     -3.25401964873   11.84437414385   -3.25401964873   -2.00000000000
      3.25401964873   11.84437414385   -3.25401964873   -2.00000000000
      3.25401964873  -11.84437414385   -3.25401964873   -2.00000000000
     -3.25401964873  -11.84437414385   -3.25401964873   -2.00000000000
     -1.98192821856    4.44164030394   11.74398716476   -2.00000000000
      1.98192821856    4.44164030394   11.74398716476   -2.00000000000
      1.98192821856   -4.44164030394   11.74398716476   -2.00000000000
     -1.98192821856   -4.44164030394   11.74398716476   -2.00000000000
     -3.25401964873    0.00000000000  -12.30624180655   -2.00000000000
      3.25401964873    0.00000000000  -12.30624180655   -2.00000000000
      0.00000000000   10.36382737587   -7.78013072764    4.00000000000
      0.00000000000  -10.36382737587   -7.78013072764    4.00000000000
      0.00000000000    0.00000000000   13.01607859493   -2.00000000000
      0.00000000000    0.00000000000  -13.01607859493   -2.00000000000
     -3.25401964873    2.96109353596  -12.30624180655   -2.00000000000
      3.25401964873    2.96109353596  -12.30624180655   -2.00000000000
      3.25401964873   -2.96109353596  -12.30624180655   -2.00000000000
     -3.25401964873   -2.96109353596  -12.30624180655   -2.00000000000
     -1.98192821856   10.36382737587   -7.78013072764   -2.00000000000
      1.98192821856   10.36382737587   -7.78013072764   -2.00000000000
      1.98192821856  -10.36382737587   -7.78013072764   -2.00000000000
     -1.98192821856  -10.36382737587   -7.78013072764   -2.00000000000
     -1.27209143018    7.40273383991  -11.03415037637   -2.00000000000
      1.27209143018    7.40273383991  -11.03415037637   -2.00000000000
      1.27209143018   -7.40273383991  -11.03415037637   -2.00000000000
     -1.27209143018   -7.40273383991  -11.03415037637   -2.00000000000
      0.00000000000    2.96109353596   13.01607859493   -2.00000000000
      0.00000000000   -2.96109353596   13.01607859493   -2.00000000000
      0.00000000000    2.96109353596  -13.01607859493   -2.00000000000
      0.00000000000   -2.96109353596  -13.01607859493   -2.00000000000
     -3.25401964873    5.92218707193   11.74398716476    4.00000000000
      3.25401964873    5.92218707193   11.74398716476    4.00000000000
      3.25401964873   -5.92218707193   11.74398716476    4.00000000000
     -3.25401964873   -5.92218707193   11.74398716476    4.00000000000
      0.00000000000    7.40273383991   11.74398716476    4.00000000000
      0.00000000000   -7.40273383991   11.74398716476    4.00000000000
     -8.48996751602    7.40273383991   -1.27209143018   -2.00000000000
      8.48996751602    7.40273383991   -1.27209143018   -2.00000000000
      8.48996751602   -7.40273383991   -1.27209143018   -2.00000000000
     -8.48996751602   -7.40273383991   -1.27209143018   -2.00000000000
[...]
 5150   A         12.675130      12.675130
 5151   A         12.678583      12.678583
 5152   A         12.682132      12.682132
 5153   A         12.683983      12.683983
 5154   A         12.684985      12.684985
 5155   A         12.686943      12.686943
 5156   A         12.689217      12.689217
 5157   A         12.690604      12.690604
 5158   A         12.697917      12.697917
 5159   A         12.698985      12.698985
 5160   A         12.699486      12.699486
 5161   A         12.701019      12.701019
 5162   A         12.703755      12.703755
 5163   A         12.707907      12.707907
 5164   A         12.709006      12.709006
 5165   A         12.712083      12.712083
 5166   A         12.712911      12.712911
 5167   A         12.717338      12.717338
 5168   A         12.724315      12.724315
 5169   A         12.724713      12.724713
 5170   A         12.725120      12.725120
 5171   A         12.725473      12.725473
 5172   A         12.728167      12.728167
 5173   A         12.728381      12.728381
 5174   A         12.730303      12.730303
 5175   A         12.733440      12.733440
 5176   A         12.734204      12.734204
 5177   A         12.736339      12.736339
 5178   A         12.737288      12.737288
 5179   A         12.738697      12.738697
 5180   A         12.742004      12.742004
 5181   A         12.743115      12.743115
 5182   A         12.744000      12.744000
 5183   A         12.744710      12.744710
 5184   A         12.747899      12.747899
 5185   A         12.748188      12.748188
 5186   A         12.754350      12.754350
 5187   A         12.755786      12.755786
 5188   A         12.756897      12.756897
 5189   A         12.758933      12.758933
 5190   A         12.759198      12.759198
 5191   A         12.761612      12.761612
 5192   A         12.761802      12.761802
 5193   A         12.762964      12.762964
 5194   A         12.764003      12.764003
 5195   A         12.766863      12.766863
 5196   A         12.769792      12.769792
 5197   A         12.771183      12.771183
 5198   A         12.771338      12.771338
 5199   A         12.772212      12.772212
 5200   A         12.773263      12.773263
 5201   A         12.775629      12.775629
 5202   A         12.776241      12.776241
 5203   A         12.776929      12.776929
 5204   A         12.778112      12.778112
 5205   A         12.779327      12.779327
 5206   A         12.779729      12.779729
 5207   A         12.780841      12.780841
 5208   A         12.781558      12.781558
 5209   A         12.785420      12.785420
 5210   A         12.794979      12.794979
 5211   A         12.795884      12.795884
 5212   A         12.797867      12.797867
 5213   A         12.800560      12.800560
 5214   A         12.802109      12.802109
 5215   A         12.802777      12.802777
 5216   A         12.802823      12.802823
 5217   A         12.804085      12.804085
 5218   A         12.811316      12.811316
 5219   A         12.813736      12.813736
 5220   A         12.814890      12.814890
 5221   A         12.815805      12.815805
 5222   A         12.817218      12.817218
 5223   A         12.819420      12.819420
 5224   A         12.821736      12.821736
 5225   A         12.821913      12.821913
 5226   A         12.834996      12.834996
 5227   A         12.839499      12.839499
 5228   A         12.842983      12.842983
 5229   A         12.843871      12.843871
 5230   A         12.848343      12.848343
 5231   A         12.849356      12.849356
 5232   A         12.852260      12.852260
 5233   A         12.854412      12.854412
 5234   A         12.855089      12.855089
 5235   A         12.863363      12.863363
 5236   A         12.865877      12.865877
 5237   A         12.871651      12.871651
 5238   A         12.872477      12.872477
 5239   A         12.874278      12.874278
 5240   A         12.877667      12.877667
 5241   A         12.877676      12.877676
 5242   A         12.883266      12.883266
 5243   A         12.891476      12.891476
 5244   A         12.891930      12.891930
 5245   A         12.894895      12.894895
 5246   A         12.895609      12.895609
 5247   A         12.897237      12.897237
 5248   A         12.897767      12.897767
 5249   A         12.910459      12.910459
 5250   A         12.913675      12.913675
 5251   A         12.913831      12.913831
 5252   A         12.918169      12.918169
 5253   A         12.919551      12.919551
 5254   A         12.932889      12.932889
 5255   A         12.932894      12.932894
 5256   A         12.937317      12.937317
 5257   A         12.948157      12.948157
 5258   A         12.953738      12.953738
 5259   A         12.955448      12.955448
 5260   A         12.957051      12.957051
 5261   A         12.959541      12.959541
 5262   A         12.959621      12.959621
 5263   A         12.966741      12.966741
 5264   A         12.975545      12.975545
 5265   A         12.976074      12.976074
 5266   A         12.981602      12.981602
 5267   A         12.981718      12.981718
 5268   A         12.988600      12.988600
 5269   A         12.989396      12.989396
 5270   A         12.997016      12.997016
 5271   A         13.000333      13.000333
 5272   A         13.002559      13.002559
 5273   A         13.005009      13.005009
 5274   A         13.014067      13.014067
 5275   A         13.022077      13.022077
 5276   A         13.033911      13.033911
 5277   A         13.037416      13.037416
 5278   A         13.041127      13.041127
 5279   A         13.044683      13.044683
 5280   A         13.044821      13.044821
 5281   A         13.051567      13.051567
 5282   A         13.051901      13.051901
 5283   A         13.056130      13.056130
 5284   A         13.070287      13.070287
 5285   A         13.071021      13.071021
 5286   A         13.075652      13.075652
 5287   A         13.082285      13.082285
 5288   A         13.085032      13.085032
 5289   A         13.087898      13.087898
 5290   A         13.088747      13.088747
 5291   A         13.098422      13.098422
 5292   A         13.099279      13.099279
 5293   A         13.106694      13.106694
 5294   A         13.116644      13.116644
 5295   A         13.118225      13.118225
 5296   A         13.123506      13.123506
 5297   A         13.124728      13.124728
 5298   A         13.135476      13.135476
 5299   A         13.140931      13.140931
 5300   A         13.156842      13.156842
 5301   A         13.176631      13.176631
 5302   A         13.209102      13.209102
 5303   A         13.225205      13.225205
 5304   A         13.236456      13.236456
 5305   A         13.251034      13.251034
 5306   A         13.262567      13.262567
 5307   A         13.268108      13.268108
 5308   A         13.268553      13.268553
 5309   A         13.299225      13.299225
 5310   A         13.303638      13.303638
 5311   A         13.304466      13.304466
 5312   A         13.315167      13.315167
 5313   A         13.334036      13.334036
 5314   A         13.334492      13.334492
 5315   A         13.341539      13.341539
 5316   A         13.353916      13.353916
 5317   A         13.362325      13.362325
 5318   A         13.370851      13.370851
 5319   A         13.377607      13.377607
 5320   A         13.379424      13.379424
 5321   A         13.380301      13.380301
 5322   A         13.382416      13.382416
 5323   A         13.414006      13.414006
 5324   A         13.415017      13.415017
 5325   A         13.421049      13.421049
 5326   A         13.428593      13.428593
 5327   A         13.431775      13.431775
 5328   A         13.439907      13.439907
 5329   A         13.445840      13.445840
 5330   A         13.455654      13.455654
 5331   A         13.460996      13.460996
 5332   A         13.461188      13.461188
 5333   A         13.463685      13.463685
 5334   A         13.481033      13.481033
 5335   A         13.490142      13.490142
 5336   A         13.497461      13.497461
 5337   A         13.499801      13.499801
 5338   A         13.502506      13.502506
 5339   A         13.515910      13.515910
 5340   A         13.522549      13.522549
 5341   A         13.529038      13.529038
 5342   A         13.529156      13.529156
 5343   A         13.541837      13.541837
 5344   A         13.548404      13.548404
 5345   A         13.548562      13.548562
 5346   A         13.548801      13.548801
 5347   A         13.561291      13.561291
 5348   A         13.578215      13.578215
 5349   A         13.580004      13.580004
 5350   A         13.580966      13.580966
 5351   A         13.593700      13.593700
 5352   A         13.599202      13.599202
 5353   A         13.601732      13.601732
 5354   A         13.606570      13.606570
 5355   A         13.618709      13.618709
 5356   A         13.639603      13.639603
 5357   A         13.653185      13.653185
 5358   A         13.653907      13.653907
 5359   A         13.666318      13.666318
 5360   A         13.675555      13.675555
 5361   A         13.683006      13.683006
 5362   A         13.692598      13.692598
 5363   A         13.698688      13.698688
 5364   A         13.713656      13.713656
 5365   A         13.717484      13.717484
 5366   A         13.720051      13.720051
 5367   A         13.730073      13.730073
 5368   A         13.749277      13.749277
 5369   A         13.752031      13.752031
 5370   A         13.752157      13.752157
 5371   A         13.766588      13.766588
 5372   A         13.777162      13.777162
 5373   A         13.831971      13.831971
 5374   A         13.845562      13.845562
 5375   A         13.865692      13.865692
 5376   A         13.871702      13.871702
 5377   A         13.907265      13.907265
 5378   A         13.908243      13.908243
 5379   A         13.911677      13.911677
 5380   A         13.930799      13.930799
 5381   A         13.935213      13.935213
 5382   A         13.957298      13.957298
 5383   A         13.974828      13.974828
 5384   A         13.982188      13.982188
 5385   A         14.000226      14.000226
 5386   A         14.019412      14.019412
 5387   A         14.027220      14.027220
 5388   A         14.078388      14.078388
 5389   A         14.106293      14.106293
 5390   A         14.120739      14.120739
 5391   A         14.132086      14.132086
 5392   A         14.173502      14.173502
 5393   A         14.186066      14.186066
 5394   A         14.210983      14.210983
 5395   A         14.217625      14.217625
 5396   A         14.248941      14.248941
 5397   A         14.254589      14.254589
 5398   A         14.269576      14.269576
 5399   A         14.284839      14.284839
 5400   A         14.325700      14.325700
 5401   A         14.339184      14.339184
 5402   A         14.352235      14.352235
 5403   A         14.380860      14.380860
 5404   A         14.383526      14.383526
 5405   A         14.450919      14.450919
 5406   A         14.463198      14.463198
 5407   A         14.608326      14.608326
 5408   A         14.974035      14.974035
 5409   A         15.433828      15.433828
 5410   A         17.588367      17.588367
 5411   A         17.615122      17.615122
 5412   A         17.708872      17.708872
 5413   A         18.053358      18.053358
 5414   A         18.186388      18.186388
 5415   A         25.336535      25.336535
 5416   A         25.348135      25.348135
 5417   A         25.382190      25.382190
 5418   A         25.386651      25.386651
 5419   A         25.411369      25.411369
 5420   A         25.432531      25.432531
 5421   A         25.471890      25.471890
 5422   A         25.475806      25.475806
 5423   A         25.479035      25.479035
 5424   A         25.527939      25.527939
 5425   A         25.597346      25.597346
 5426   A         25.597670      25.597670
 5427   A         25.602002      25.602002
 5428   A         25.636362      25.636362
 5429   A         25.649995      25.649995
 5430   A         25.760201      25.760201
 5431   A         25.852619      25.852619
 5432   A         25.865975      25.865975
 5433   A         31.828697      31.828697
 5434   A         47.656679      47.656679
 5435   A         47.680672      47.680672
 5436   A         47.685976      47.685976
 5437   A         47.703843      47.703843
 5438   A         47.735449      47.735449
 5439   A         47.741902      47.741902
 5440   A         47.755863      47.755863
 5441   A         47.771520      47.771520
 5442   A         47.777204      47.777204
 5443   A         47.779814      47.779814
 5444   A         47.789838      47.789838
 5445   A         47.791817      47.791817
 5446   A         47.798588      47.798588
 5447   A         47.798844      47.798844
 5448   A         47.810412      47.810412
 5449   A         47.823383      47.823383
 5450   A         47.828218      47.828218
 5451   A         47.846277      47.846277
 5452   A         47.850206      47.850206
 5453   A         47.856258      47.856258
 5454   A         47.863231      47.863231
 5455   A         47.863276      47.863276
 5456   A         47.875402      47.875402
 5457   A         47.880100      47.880100
 5458   A         47.893712      47.893712
 5459   A         47.897616      47.897616
 5460   A         47.903483      47.903483
 5461   A         47.912458      47.912458
 5462   A         47.921360      47.921360
 5463   A         47.943167      47.943167
 5464   A         47.949882      47.949882
 5465   A         47.961309      47.961309
 5466   A         47.977297      47.977297
 5467   A         47.982142      47.982142
 5468   A         47.988810      47.988810
 5469   A         47.990702      47.990702
 5470   A         48.002387      48.002387
 5471   A         48.010566      48.010566
 5472   A         48.014436      48.014436
 5473   A         48.027633      48.027633
 5474   A         48.028567      48.028567
 5475   A         48.059891      48.059891
 5476   A         48.074679      48.074679
 5477   A         48.093425      48.093425
 5478   A         48.093659      48.093659
 5479   A         48.140096      48.140096
 5480   A         48.152475      48.152475
 5481   A         48.156933      48.156933
 5482   A         48.169266      48.169266
 5483   A         48.197467      48.197467
 5484   A         48.205924      48.205924
 5485   A         48.218634      48.218634
 5486   A         48.228634      48.228634
 5487   A         48.249989      48.249989
 5488   A         48.352058      48.352058
 5489   A         48.390483      48.390483
 5490   A         48.395880      48.395880
 5491   A         48.401267      48.401267
 5492   A         48.433539      48.433539
 5493   A         48.450748      48.450748
 5494   A         48.457489      48.457489
 5495   A         48.459036      48.459036
 5496   A         48.517753      48.517753
 5497   A         48.527788      48.527788
 5498   A         48.552359      48.552359
 5499   A         48.555927      48.555927
 5500   A         48.606854      48.606854
 5501   A         48.620733      48.620733
 5502   A         82.176607      82.176607
 5503   A         82.188005      82.188005
 5504   A         82.222438      82.222438
 5505   A         82.227747      82.227747
 5506   A         82.246771      82.246771
 5507   A         82.267527      82.267527
 5508   A         82.305756      82.305756
 5509   A         82.308763      82.308763
 5510   A         82.310781      82.310781
 5511   A         82.359944      82.359944
 5512   A         82.424184      82.424184
 5513   A         82.427498      82.427498
 5514   A         82.428892      82.428892
 5515   A         82.458237      82.458237
 5516   A         82.470706      82.470706
 5517   A         82.575634      82.575634
 5518   A         82.662487      82.662487
 5519   A         82.673447      82.673447
 5520   A         90.555103      90.555103
 5521   A        252.633024     252.633024
 5522   A        252.660303     252.660303
 5523   A        252.669370     252.669370
 5524   A        252.689552     252.689552
 5525   A        252.726265     252.726265
 5526   A        252.731125     252.731125
 5527   A        252.746529     252.746529
 5528   A        252.765688     252.765688
 5529   A        252.769857     252.769857
 5530   A        252.770477     252.770477
 5531   A        252.783922     252.783922
 5532   A        252.787811     252.787811
 5533   A        252.794322     252.794322
 5534   A        252.795338     252.795338
 5535   A        252.807089     252.807089
 5536   A        252.822408     252.822408
 5537   A        252.829076     252.829076
 5538   A        252.845101     252.845101
 5539   A        252.854485     252.854485
 5540   A        252.860660     252.860660
 5541   A        252.869366     252.869366
 5542   A        252.869994     252.869994
 5543   A        252.879240     252.879240
 5544   A        252.888472     252.888472
 5545   A        252.901942     252.901942
 5546   A        252.906193     252.906193
 5547   A        252.911641     252.911641
 5548   A        252.923119     252.923119
 5549   A        252.933050     252.933050
 5550   A        252.958897     252.958897
 5551   A        252.967231     252.967231
 5552   A        252.979282     252.979282
 5553   A        253.000122     253.000122
 5554   A        253.002836     253.002836
 5555   A        253.011864     253.011864
 5556   A        253.014963     253.014963
 5557   A        253.027788     253.027788
 5558   A        253.036225     253.036225
 5559   A        253.040449     253.040449
 5560   A        253.056052     253.056052
 5561   A        253.057682     253.057682
 5562   A        253.089827     253.089827
 5563   A        253.107137     253.107137
 5564   A        253.125566     253.125566
 5565   A        253.126985     253.126985
 5566   A        253.179635     253.179635
 5567   A        253.196650     253.196650
 5568   A        253.200378     253.200378
 5569   A        253.215290     253.215290
 5570   A        253.244554     253.244554
 5571   A        253.258578     253.258578
 5572   A        253.272595     253.272595
 5573   A        253.285127     253.285127
 5574   A        253.311455     253.311455
 5575   A        253.421339     253.421339
 5576   A        253.461483     253.461483
 5577   A        253.475439     253.475439
 5578   A        253.478223     253.478223
 5579   A        253.522535     253.522535
 5580   A        253.534099     253.534099
 5581   A        253.542796     253.542796
 5582   A        253.548949     253.548949
 5583   A        253.606744     253.606744
 5584   A        253.618842     253.618842
 5585   A        253.653701     253.653701
 5586   A        253.659956     253.659956
 5587   A        253.709953     253.709953
 5588   A        253.726493     253.726493
 5589   A        411.209454     411.209454
 5590   A        516.100446     516.100446
 5591   A        516.122825     516.122825
 5592   A        516.185567     516.185567
 5593   A        516.199396     516.199396
 5594   A        516.230702     516.230702
 5595   A        516.267208     516.267208
 5596   A        516.334270     516.334270
 5597   A        516.340392     516.340392
 5598   A        516.342206     516.342206
 5599   A        516.432885     516.432885
 5600   A        516.551590     516.551590
 5601   A        516.558177     516.558177
 5602   A        516.559117     516.559117
 5603   A        516.609411     516.609411
 5604   A        516.632017     516.632017
 5605   A        516.801613     516.801613
 5606   A        516.955411     516.955411
 5607   A        516.980938     516.980938
 
 RETURNING FROM SCF ALGORITHM
 ======================================================================
 
 ************************ 2021-12-02 07:59:13 *************************
                      Normal termination of mrcc.
 **********************************************************************
