
                                 *****************
                                 * O   R   C   A *
                                 *****************

                                            #,                                       
                                            ###                                      
                                            ####                                     
                                            #####                                    
                                            ######                                   
                                           ########,                                 
                                     ,,################,,,,,                         
                               ,,#################################,,                 
                          ,,##########################################,,             
                       ,#########################################, ''#####,          
                    ,#############################################,,   '####,        
                  ,##################################################,,,,####,       
                ,###########''''           ''''###############################       
              ,#####''   ,,,,##########,,,,          '''####'''          '####       
            ,##' ,,,,###########################,,,                        '##       
           ' ,,###''''                  '''############,,,                           
         ,,##''                                '''############,,,,        ,,,,,,###''
      ,#''                                            '''#######################'''  
     '                                                          ''''####''''         
             ,#######,   #######,   ,#######,      ##                                
            ,#'     '#,  ##    ##  ,#'     '#,    #''#        ######   ,####,        
            ##       ##  ##   ,#'  ##            #'  '#       #        #'  '#        
            ##       ##  #######   ##           ,######,      #####,   #    #        
            '#,     ,#'  ##    ##  '#,     ,#' ,#      #,         ##   #,  ,#        
             '#######'   ##     ##  '#######'  #'      '#     #####' # '####'        



                  #######################################################
                  #                        -***-                        #
                  #          Department of theory and spectroscopy      #
                  #    Directorship and core code : Frank Neese         #
                  #        Max Planck Institute fuer Kohlenforschung    #
                  #                Kaiser Wilhelm Platz 1               #
                  #                 D-45470 Muelheim/Ruhr               #
                  #                      Germany                        #
                  #                                                     #
                  #                  All rights reserved                #
                  #                        -***-                        #
                  #######################################################


                         Program Version 5.0.1 -  RELEASE  -


 With contributions from (in alphabetic order):
   Daniel Aravena         : Magnetic Suceptibility
   Michael Atanasov       : Ab Initio Ligand Field Theory (pilot matlab implementation)
   Alexander A. Auer      : GIAO ZORA, VPT2 properties, NMR spectrum
   Ute Becker             : Parallelization
   Giovanni Bistoni       : ED, misc. LED, open-shell LED, HFLD
   Martin Brehm           : Molecular dynamics
   Dmytro Bykov           : SCF Hessian
   Vijay G. Chilkuri      : MRCI spin determinant printing, contributions to CSF-ICE
   Dipayan Datta          : RHF DLPNO-CCSD density
   Achintya Kumar Dutta   : EOM-CC, STEOM-CC
   Dmitry Ganyushin       : Spin-Orbit,Spin-Spin,Magnetic field MRCI
   Miquel Garcia          : C-PCM and meta-GGA Hessian, CC/C-PCM, Gaussian charge scheme
   Yang Guo               : DLPNO-NEVPT2, F12-NEVPT2, CIM, IAO-localization
   Andreas Hansen         : Spin unrestricted coupled pair/coupled cluster methods
   Benjamin Helmich-Paris : MC-RPA, TRAH-SCF, COSX integrals
   Lee Huntington         : MR-EOM, pCC
   Robert Izsak           : Overlap fitted RIJCOSX, COSX-SCS-MP3, EOM
   Marcus Kettner         : VPT2
   Christian Kollmar      : KDIIS, OOCD, Brueckner-CCSD(T), CCSD density, CASPT2, CASPT2-K
   Simone Kossmann        : Meta GGA functionals, TD-DFT gradient, OOMP2, MP2 Hessian
   Martin Krupicka        : Initial AUTO-CI
   Lucas Lang             : DCDCAS
   Marvin Lechner         : AUTO-CI (C++ implementation), FIC-MRCC
   Dagmar Lenk            : GEPOL surface, SMD
   Dimitrios Liakos       : Extrapolation schemes; Compound Job, initial MDCI parallelization
   Dimitrios Manganas     : Further ROCIS development; embedding schemes
   Dimitrios Pantazis     : SARC Basis sets
   Anastasios Papadopoulos: AUTO-CI, single reference methods and gradients
   Taras Petrenko         : DFT Hessian,TD-DFT gradient, ASA, ECA, R-Raman, ABS, FL, XAS/XES, NRVS
   Peter Pinski           : DLPNO-MP2, DLPNO-MP2 Gradient
   Christoph Reimann      : Effective Core Potentials
   Marius Retegan         : Local ZFS, SOC
   Christoph Riplinger    : Optimizer, TS searches, QM/MM, DLPNO-CCSD(T), (RO)-DLPNO pert. Triples
   Tobias Risthaus        : Range-separated hybrids, TD-DFT gradient, RPA, STAB
   Michael Roemelt        : Original ROCIS implementation
   Masaaki Saitow         : Open-shell DLPNO-CCSD energy and density
   Barbara Sandhoefer     : DKH picture change effects
   Avijit Sen             : IP-ROCIS
   Kantharuban Sivalingam : CASSCF convergence, NEVPT2, FIC-MRCI
   Bernardo de Souza      : ESD, SOC TD-DFT
   Georgi Stoychev        : AutoAux, RI-MP2 NMR, DLPNO-MP2 response
   Willem Van den Heuvel  : Paramagnetic NMR
   Boris Wezisla          : Elementary symmetry handling
   Frank Wennmohs         : Technical directorship


 We gratefully acknowledge several colleagues who have allowed us to
 interface, adapt or use parts of their codes:
   Stefan Grimme, W. Hujo, H. Kruse, P. Pracht,  : VdW corrections, initial TS optimization,
                  C. Bannwarth, S. Ehlert          DFT functionals, gCP, sTDA/sTD-DF
   Ed Valeev, F. Pavosevic, A. Kumar             : LibInt (2-el integral package), F12 methods
   Garnet Chan, S. Sharma, J. Yang, R. Olivares  : DMRG
   Ulf Ekstrom                                   : XCFun DFT Library
   Mihaly Kallay                                 : mrcc  (arbitrary order and MRCC methods)
   Jiri Pittner, Ondrej Demel                    : Mk-CCSD
   Frank Weinhold                                : gennbo (NPA and NBO analysis)
   Christopher J. Cramer and Donald G. Truhlar   : smd solvation model
   Lars Goerigk                                  : TD-DFT with DH, B97 family of functionals
   V. Asgeirsson, H. Jonsson                     : NEB implementation
   FAccTs GmbH                                   : IRC, NEB, NEB-TS, DLPNO-Multilevel, CI-OPT
                                                   MM, QMMM, 2- and 3-layer-ONIOM, Crystal-QMMM,
                                                   LR-CPCM, SF, NACMEs, symmetry and pop. for TD-DFT,
                                                   nearIR, NL-DFT gradient (VV10), updates on ESD,
                                                   ML-optimized integration grids
   S Lehtola, MJT Oliveira, MAL Marques          : LibXC Library
   Liviu Ungur et al                             : ANISO software


 Your calculation uses the libint2 library for the computation of 2-el integrals
 For citations please refer to: http://libint.valeyev.net

 Your ORCA version has been built with support for libXC version: 5.1.0
 For citations please refer to: https://tddft.org/programs/libxc/

 This ORCA versions uses:
   CBLAS   interface :  Fast vector & matrix operations
   LAPACKE interface :  Fast linear algebra routines
   SCALAPACK package :  Parallel linear algebra routines
   Shared memory     :  Shared parallel matrices
   BLAS/LAPACK       :  OpenBLAS 0.3.15  USE64BITINT DYNAMIC_ARCH NO_AFFINITY SkylakeX SINGLE_THREADED
        Core in use  :  SkylakeX
   Copyright (c) 2011-2014, The OpenBLAS Project


Setting NCore(Ti) from 10 to 18
Setting NCore(O ) from 2 to 2
SCAN-COORDS
================================================================================

----- Orbital basis set information -----
Your calculation utilizes the basis: def2-TZVPP
   F. Weigend and R. Ahlrichs, Phys. Chem. Chem. Phys. 7, 3297 (2005).

----- AuxJ basis set information -----
Your calculation utilizes the auxiliary basis: def2/J
   F. Weigend, Phys. Chem. Chem. Phys. 8, 1057 (2006).

----- AuxC basis set information -----
Your calculation utilizes the auxiliary basis: def2-TZVPP/C
  H-La, Hf-Rn : A. Hellweg, C. Hattig, S. Hofener and W. Klopper, Theor. Chem. Acc. 117, 587 (2007).
        Ce-Lu : J. Chmela and M. E. Harding, Mol. Phys. (2018).

================================================================================
                                        WARNINGS
                       Please study these warnings very carefully!
================================================================================

WARNING: The globally-selected AuxJ basis set is optimized for use with ECPs
         Make sure a suitable alternative is explicitly given all heavy elements (Z>36)

WARNING: No MP2 level density has been requested!
         To caclulate MP2 level properties use
         %mp2 Density relaxed end
         or
         %mp2 Density unrelaxed end
         Otherwise for double-hybrid DFT only the energy is correct!

WARNING: The frozen-core approximation is turned on by default for 
         the MP2 part of double-hybrid DFT.

INFO   : the flag for use of the SHARK integral package has been found!

================================================================================
                                       INPUT FILE
================================================================================
NAME = orca.inp
|  1> ! VeryTightSCF DLPNO-B2PLYP NormalPNO RIJCOSX SlowConv DIIS
|  2> %maxcore 60000
|  3> %pal
|  4> nprocs 20
|  5> end
|  6> %pointcharges "orca.bq"
|  7> %method
|  8> Method DFT
|  9> RI on
| 10> RunTyp Energy
| 11> NewNCore Ti 18 end
| 12> NewNCore O 2 end
| 13> end
| 14> %basis
| 15> Basis "def2-TZVPP"
| 16> Aux "def2/J"
| 17> AuxC "def2-TZVPP/C"
| 18> end
| 19> %scf
| 20> HFTyp rks
| 21> Guess Hueckel
| 22> AutoStart True
| 23> SCFMode Direct
| 24> MaxIter 1000
| 25> sthresh 1e-6
| 26> AutoTRAHIter 100
| 27> end
| 28> %coords
| 29> CTyp xyz
| 30> Mult 1
| 31> Units angs
| 32>   Charge -16
| 33>   coords
| 34> O                       0.00000000000    0.00000000000    0.00000000000
| 35> Ti                      0.00000536997    1.48055149700   -1.06892606631
| 36> Ti                      0.00000552101   -1.48055312386   -1.06892138720
| 37> O                       0.00000442396   -0.00000111986   -2.54840301833
| 38> O                      -2.03525914147    1.48054518365   -1.11149385695
| 39> O                       2.03526534753    1.48054527935   -1.11149163807
| 40> O                       2.03526471018   -1.48054700097   -1.11149295951
| 41> O                      -2.03525907462   -1.48054722666   -1.11149503385
| 42> O                      -0.00000037752    2.96109155033   -0.00000271770
| 43> O                      -0.00000037752   -2.96109552160   -0.00000271770
| 44> Ti                      3.25402319191   -0.00000112036   -1.42716202606
| 45> Ti                     -3.25401610555   -0.00000112036   -1.42716202606
| 46> O                       0.00000449994    2.96109199200   -2.54840438198
| 47> O                       0.00000449994   -2.96109507993   -2.54840438198
| 48> O                       3.25402603430   -0.00000063665   -3.23990501486
| 49> O                      -3.25401326317   -0.00000063665   -3.23990501486
| 50> O                      -4.47277394994    1.48054527935   -1.11149163807
| 51> O                       4.47278015600    1.48054518365   -1.11149385695
| 52> O                       4.47278022285   -1.48054722666   -1.11149503385
| 53> O                      -4.47277458729   -1.48054700097   -1.11149295951
| 54> Ti>    4.00000000000   -0.00005220374   -0.00000071014   -4.41288396045
| 55> NewECP
| 56> N_core 0
| 57>   lmax f
| 58>   s 2
| 59>    1      0.860000       9.191690  2
| 60>    2      0.172000       0.008301  2
| 61>   p 2
| 62>    1      0.860000      17.997720  2
| 63>    2      0.172000      -0.032600  2
| 64>   d 2
| 65>    1      1.600000      -9.504310  2
| 66>    2      0.320000      -0.151370  2
| 67>   f 1
| 68>    1      1.000000000    0.000000000 2
| 69> end
| 70> Ti>    4.00000000000    0.00000552101    4.44163394806   -1.06892138720
| 71> NewECP
| 72> N_core 0
| 73>   lmax f
| 74>   s 2
| 75>    1      0.860000       9.191690  2
| 76>    2      0.172000       0.008301  2
| 77>   p 2
| 78>    1      0.860000      17.997720  2
| 79>    2      0.172000      -0.032600  2
| 80>   d 2
| 81>    1      1.600000      -9.504310  2
| 82>    2      0.320000      -0.151370  2
| 83>   f 1
| 84>    1      1.000000000    0.000000000 2
| 85> end
| 86> Ti>    4.00000000000    0.00000536997   -4.44163557493   -1.06892606631
| 87> NewECP
| 88> N_core 0
| 89>   lmax f
| 90>   s 2
| 91>    1      0.860000       9.191690  2
| 92>    2      0.172000       0.008301  2
| 93>   p 2
| 94>    1      0.860000      17.997720  2
| 95>    2      0.172000      -0.032600  2
| 96>   d 2
| 97>    1      1.600000      -9.504310  2
| 98>    2      0.320000      -0.151370  2
| 99>   f 1
|100>    1      1.000000000    0.000000000 2
|101> end
|102> Ti>    4.00000000000   -3.25401668289    2.96109302555   -1.42716235830
|103> NewECP
|104> N_core 0
|105>   lmax f
|106>   s 2
|107>    1      0.860000       9.191690  2
|108>    2      0.172000       0.008301  2
|109>   p 2
|110>    1      0.860000      17.997720  2
|111>    2      0.172000      -0.032600  2
|112>   d 2
|113>    1      1.600000      -9.504310  2
|114>    2      0.320000      -0.151370  2
|115>   f 1
|116>    1      1.000000000    0.000000000 2
|117> end
|118> Ti>    4.00000000000    3.25402261457    2.96109302555   -1.42716235830
|119> NewECP
|120> N_core 0
|121>   lmax f
|122>   s 2
|123>    1      0.860000       9.191690  2
|124>    2      0.172000       0.008301  2
|125>   p 2
|126>    1      0.860000      17.997720  2
|127>    2      0.172000      -0.032600  2
|128>   d 2
|129>    1      1.600000      -9.504310  2
|130>    2      0.320000      -0.151370  2
|131>   f 1
|132>    1      1.000000000    0.000000000 2
|133> end
|134> Ti>    4.00000000000    3.25402261457   -2.96109404638   -1.42716235830
|135> NewECP
|136> N_core 0
|137>   lmax f
|138>   s 2
|139>    1      0.860000       9.191690  2
|140>    2      0.172000       0.008301  2
|141>   p 2
|142>    1      0.860000      17.997720  2
|143>    2      0.172000      -0.032600  2
|144>   d 2
|145>    1      1.600000      -9.504310  2
|146>    2      0.320000      -0.151370  2
|147>   f 1
|148>    1      1.000000000    0.000000000 2
|149> end
|150> Ti>    4.00000000000   -3.25401668289   -2.96109404638   -1.42716235830
|151> NewECP
|152> N_core 0
|153>   lmax f
|154>   s 2
|155>    1      0.860000       9.191690  2
|156>    2      0.172000       0.008301  2
|157>   p 2
|158>    1      0.860000      17.997720  2
|159>    2      0.172000      -0.032600  2
|160>   d 2
|161>    1      1.600000      -9.504310  2
|162>    2      0.320000      -0.151370  2
|163>   f 1
|164>    1      1.000000000    0.000000000 2
|165> end
|166> Ti>    4.00000000000   -0.00005206359    2.96109301637   -4.41288206312
|167> NewECP
|168> N_core 0
|169>   lmax f
|170>   s 2
|171>    1      0.860000       9.191690  2
|172>    2      0.172000       0.008301  2
|173>   p 2
|174>    1      0.860000      17.997720  2
|175>    2      0.172000      -0.032600  2
|176>   d 2
|177>    1      1.600000      -9.504310  2
|178>    2      0.320000      -0.151370  2
|179>   f 1
|180>    1      1.000000000    0.000000000 2
|181> end
|182> Ti>    4.00000000000   -0.00005206359   -2.96109405556   -4.41288206312
|183> NewECP
|184> N_core 0
|185>   lmax f
|186>   s 2
|187>    1      0.860000       9.191690  2
|188>    2      0.172000       0.008301  2
|189>   p 2
|190>    1      0.860000      17.997720  2
|191>    2      0.172000      -0.032600  2
|192>   d 2
|193>    1      1.600000      -9.504310  2
|194>    2      0.320000      -0.151370  2
|195>   f 1
|196>    1      1.000000000    0.000000000 2
|197> end
|198> Ti>    4.00000000000    3.25395215162    1.48054533538   -4.59991327640
|199> NewECP
|200> N_core 0
|201>   lmax f
|202>   s 2
|203>    1      0.860000       9.191690  2
|204>    2      0.172000       0.008301  2
|205>   p 2
|206>    1      0.860000      17.997720  2
|207>    2      0.172000      -0.032600  2
|208>   d 2
|209>    1      1.600000      -9.504310  2
|210>    2      0.320000      -0.151370  2
|211>   f 1
|212>    1      1.000000000    0.000000000 2
|213> end
|214> Ti>    4.00000000000    3.25395195581   -1.48054722422   -4.59991284715
|215> NewECP
|216> N_core 0
|217>   lmax f
|218>   s 2
|219>    1      0.860000       9.191690  2
|220>    2      0.172000       0.008301  2
|221>   p 2
|222>    1      0.860000      17.997720  2
|223>    2      0.172000      -0.032600  2
|224>   d 2
|225>    1      1.600000      -9.504310  2
|226>    2      0.320000      -0.151370  2
|227>   f 1
|228>    1      1.000000000    0.000000000 2
|229> end
|230> Ti>    4.00000000000   -3.25408714585    1.48054533538   -4.59991327640
|231> NewECP
|232> N_core 0
|233>   lmax f
|234>   s 2
|235>    1      0.860000       9.191690  2
|236>    2      0.172000       0.008301  2
|237>   p 2
|238>    1      0.860000      17.997720  2
|239>    2      0.172000      -0.032600  2
|240>   d 2
|241>    1      1.600000      -9.504310  2
|242>    2      0.320000      -0.151370  2
|243>   f 1
|244>    1      1.000000000    0.000000000 2
|245> end
|246> Ti>    4.00000000000   -3.25408734165   -1.48054722422   -4.59991284715
|247> NewECP
|248> N_core 0
|249>   lmax f
|250>   s 2
|251>    1      0.860000       9.191690  2
|252>    2      0.172000       0.008301  2
|253>   p 2
|254>    1      0.860000      17.997720  2
|255>    2      0.172000      -0.032600  2
|256>   d 2
|257>    1      1.600000      -9.504310  2
|258>    2      0.320000      -0.151370  2
|259>   f 1
|260>    1      1.000000000    0.000000000 2
|261> end
|262> Ti>    4.00000000000   -6.50803392749    1.48055149700   -1.06892606631
|263> NewECP
|264> N_core 0
|265>   lmax f
|266>   s 2
|267>    1      0.860000       9.191690  2
|268>    2      0.172000       0.008301  2
|269>   p 2
|270>    1      0.860000      17.997720  2
|271>    2      0.172000      -0.032600  2
|272>   d 2
|273>    1      1.600000      -9.504310  2
|274>    2      0.320000      -0.151370  2
|275>   f 1
|276>    1      1.000000000    0.000000000 2
|277> end
|278> Ti>    4.00000000000    6.50804466744    1.48055149700   -1.06892606631
|279> NewECP
|280> N_core 0
|281>   lmax f
|282>   s 2
|283>    1      0.860000       9.191690  2
|284>    2      0.172000       0.008301  2
|285>   p 2
|286>    1      0.860000      17.997720  2
|287>    2      0.172000      -0.032600  2
|288>   d 2
|289>    1      1.600000      -9.504310  2
|290>    2      0.320000      -0.151370  2
|291>   f 1
|292>    1      1.000000000    0.000000000 2
|293> end
|294> Ti>    4.00000000000    6.50804481848   -1.48055312386   -1.06892138720
|295> NewECP
|296> N_core 0
|297>   lmax f
|298>   s 2
|299>    1      0.860000       9.191690  2
|300>    2      0.172000       0.008301  2
|301>   p 2
|302>    1      0.860000      17.997720  2
|303>    2      0.172000      -0.032600  2
|304>   d 2
|305>    1      1.600000      -9.504310  2
|306>    2      0.320000      -0.151370  2
|307>   f 1
|308>    1      1.000000000    0.000000000 2
|309> end
|310> Ti>    4.00000000000   -6.50803377645   -1.48055312386   -1.06892138720
|311> NewECP
|312> N_core 0
|313>   lmax f
|314>   s 2
|315>    1      0.860000       9.191690  2
|316>    2      0.172000       0.008301  2
|317>   p 2
|318>    1      0.860000      17.997720  2
|319>    2      0.172000      -0.032600  2
|320>   d 2
|321>    1      1.600000      -9.504310  2
|322>    2      0.320000      -0.151370  2
|323>   f 1
|324>    1      1.000000000    0.000000000 2
|325> end
|326> Ti>    4.00000000000   -3.25401610555    5.92218595157   -1.42716202606
|327> NewECP
|328> N_core 0
|329>   lmax f
|330>   s 2
|331>    1      0.860000       9.191690  2
|332>    2      0.172000       0.008301  2
|333>   p 2
|334>    1      0.860000      17.997720  2
|335>    2      0.172000      -0.032600  2
|336>   d 2
|337>    1      1.600000      -9.504310  2
|338>    2      0.320000      -0.151370  2
|339>   f 1
|340>    1      1.000000000    0.000000000 2
|341> end
|342> Ti>    4.00000000000    3.25402319191    5.92218595157   -1.42716202606
|343> NewECP
|344> N_core 0
|345>   lmax f
|346>   s 2
|347>    1      0.860000       9.191690  2
|348>    2      0.172000       0.008301  2
|349>   p 2
|350>    1      0.860000      17.997720  2
|351>    2      0.172000      -0.032600  2
|352>   d 2
|353>    1      1.600000      -9.504310  2
|354>    2      0.320000      -0.151370  2
|355>   f 1
|356>    1      1.000000000    0.000000000 2
|357> end
|358> Ti>    4.00000000000    3.25402319191   -5.92218819228   -1.42716202606
|359> NewECP
|360> N_core 0
|361>   lmax f
|362>   s 2
|363>    1      0.860000       9.191690  2
|364>    2      0.172000       0.008301  2
|365>   p 2
|366>    1      0.860000      17.997720  2
|367>    2      0.172000      -0.032600  2
|368>   d 2
|369>    1      1.600000      -9.504310  2
|370>    2      0.320000      -0.151370  2
|371>   f 1
|372>    1      1.000000000    0.000000000 2
|373> end
|374> Ti>    4.00000000000   -3.25401610555   -5.92218819228   -1.42716202606
|375> NewECP
|376> N_core 0
|377>   lmax f
|378>   s 2
|379>    1      0.860000       9.191690  2
|380>    2      0.172000       0.008301  2
|381>   p 2
|382>    1      0.860000      17.997720  2
|383>    2      0.172000      -0.032600  2
|384>   d 2
|385>    1      1.600000      -9.504310  2
|386>    2      0.320000      -0.151370  2
|387>   f 1
|388>    1      1.000000000    0.000000000 2
|389> end
|390> Ti>    4.00000000000    3.25395195581    4.44163984770   -4.59991284715
|391> NewECP
|392> N_core 0
|393>   lmax f
|394>   s 2
|395>    1      0.860000       9.191690  2
|396>    2      0.172000       0.008301  2
|397>   p 2
|398>    1      0.860000      17.997720  2
|399>    2      0.172000      -0.032600  2
|400>   d 2
|401>    1      1.600000      -9.504310  2
|402>    2      0.320000      -0.151370  2
|403>   f 1
|404>    1      1.000000000    0.000000000 2
|405> end
|406> Ti>    4.00000000000    3.25395215162   -4.44164173655   -4.59991327640
|407> NewECP
|408> N_core 0
|409>   lmax f
|410>   s 2
|411>    1      0.860000       9.191690  2
|412>    2      0.172000       0.008301  2
|413>   p 2
|414>    1      0.860000      17.997720  2
|415>    2      0.172000      -0.032600  2
|416>   d 2
|417>    1      1.600000      -9.504310  2
|418>    2      0.320000      -0.151370  2
|419>   f 1
|420>    1      1.000000000    0.000000000 2
|421> end
|422> Ti>    4.00000000000   -3.25408734165    4.44163984770   -4.59991284715
|423> NewECP
|424> N_core 0
|425>   lmax f
|426>   s 2
|427>    1      0.860000       9.191690  2
|428>    2      0.172000       0.008301  2
|429>   p 2
|430>    1      0.860000      17.997720  2
|431>    2      0.172000      -0.032600  2
|432>   d 2
|433>    1      1.600000      -9.504310  2
|434>    2      0.320000      -0.151370  2
|435>   f 1
|436>    1      1.000000000    0.000000000 2
|437> end
|438> Ti>    4.00000000000   -3.25408714585   -4.44164173655   -4.59991327640
|439> NewECP
|440> N_core 0
|441>   lmax f
|442>   s 2
|443>    1      0.860000       9.191690  2
|444>    2      0.172000       0.008301  2
|445>   p 2
|446>    1      0.860000      17.997720  2
|447>    2      0.172000      -0.032600  2
|448>   d 2
|449>    1      1.600000      -9.504310  2
|450>    2      0.320000      -0.151370  2
|451>   f 1
|452>    1      1.000000000    0.000000000 2
|453> end
|454> Ti>    4.00000000000   -0.00005220374    5.92218636178   -4.41288396045
|455> NewECP
|456> N_core 0
|457>   lmax f
|458>   s 2
|459>    1      0.860000       9.191690  2
|460>    2      0.172000       0.008301  2
|461>   p 2
|462>    1      0.860000      17.997720  2
|463>    2      0.172000      -0.032600  2
|464>   d 2
|465>    1      1.600000      -9.504310  2
|466>    2      0.320000      -0.151370  2
|467>   f 1
|468>    1      1.000000000    0.000000000 2
|469> end
|470> Ti>    4.00000000000   -0.00005220374   -5.92218778207   -4.41288396045
|471> NewECP
|472> N_core 0
|473>   lmax f
|474>   s 2
|475>    1      0.860000       9.191690  2
|476>    2      0.172000       0.008301  2
|477>   p 2
|478>    1      0.860000      17.997720  2
|479>    2      0.172000      -0.032600  2
|480>   d 2
|481>    1      1.600000      -9.504310  2
|482>    2      0.320000      -0.151370  2
|483>   f 1
|484>    1      1.000000000    0.000000000 2
|485> end
|486> Ti>    4.00000000000    0.00000536997    7.40273856892   -1.06892606631
|487> NewECP
|488> N_core 0
|489>   lmax f
|490>   s 2
|491>    1      0.860000       9.191690  2
|492>    2      0.172000       0.008301  2
|493>   p 2
|494>    1      0.860000      17.997720  2
|495>    2      0.172000      -0.032600  2
|496>   d 2
|497>    1      1.600000      -9.504310  2
|498>    2      0.320000      -0.151370  2
|499>   f 1
|500>    1      1.000000000    0.000000000 2
|501> end
|502> Ti>    4.00000000000    0.00000552101   -7.40274019579   -1.06892138720
|503> NewECP
|504> N_core 0
|505>   lmax f
|506>   s 2
|507>    1      0.860000       9.191690  2
|508>    2      0.172000       0.008301  2
|509>   p 2
|510>    1      0.860000      17.997720  2
|511>    2      0.172000      -0.032600  2
|512>   d 2
|513>    1      1.600000      -9.504310  2
|514>    2      0.320000      -0.151370  2
|515>   f 1
|516>    1      1.000000000    0.000000000 2
|517> end
|518> Ti>    4.00000000000    6.50798709372   -0.00000071014   -4.41288396045
|519> NewECP
|520> N_core 0
|521>   lmax f
|522>   s 2
|523>    1      0.860000       9.191690  2
|524>    2      0.172000       0.008301  2
|525>   p 2
|526>    1      0.860000      17.997720  2
|527>    2      0.172000      -0.032600  2
|528>   d 2
|529>    1      1.600000      -9.504310  2
|530>    2      0.320000      -0.151370  2
|531>   f 1
|532>    1      1.000000000    0.000000000 2
|533> end
|534> Ti>    4.00000000000   -6.50809150121   -0.00000071014   -4.41288396045
|535> NewECP
|536> N_core 0
|537>   lmax f
|538>   s 2
|539>    1      0.860000       9.191690  2
|540>    2      0.172000       0.008301  2
|541>   p 2
|542>    1      0.860000      17.997720  2
|543>    2      0.172000      -0.032600  2
|544>   d 2
|545>    1      1.600000      -9.504310  2
|546>    2      0.320000      -0.151370  2
|547>   f 1
|548>    1      1.000000000    0.000000000 2
|549> end
|550> Ti>    4.00000000000   -0.00000306899    1.48054576566   -7.78540932970
|551> NewECP
|552> N_core 0
|553>   lmax f
|554>   s 2
|555>    1      0.860000       9.191690  2
|556>    2      0.172000       0.008301  2
|557>   p 2
|558>    1      0.860000      17.997720  2
|559>    2      0.172000      -0.032600  2
|560>   d 2
|561>    1      1.600000      -9.504310  2
|562>    2      0.320000      -0.151370  2
|563>   f 1
|564>    1      1.000000000    0.000000000 2
|565> end
|566> Ti>    4.00000000000   -0.00000306899   -1.48054777030   -7.78540932970
|567> NewECP
|568> N_core 0
|569>   lmax f
|570>   s 2
|571>    1      0.860000       9.191690  2
|572>    2      0.172000       0.008301  2
|573>   p 2
|574>    1      0.860000      17.997720  2
|575>    2      0.172000      -0.032600  2
|576>   d 2
|577>    1      1.600000      -9.504310  2
|578>    2      0.320000      -0.151370  2
|579>   f 1
|580>    1      1.000000000    0.000000000 2
|581> end
|582> Ti>    4.00000000000   -6.50803377645    4.44163394806   -1.06892138720
|583> NewECP
|584> N_core 0
|585>   lmax f
|586>   s 2
|587>    1      0.860000       9.191690  2
|588>    2      0.172000       0.008301  2
|589>   p 2
|590>    1      0.860000      17.997720  2
|591>    2      0.172000      -0.032600  2
|592>   d 2
|593>    1      1.600000      -9.504310  2
|594>    2      0.320000      -0.151370  2
|595>   f 1
|596>    1      1.000000000    0.000000000 2
|597> end
|598> Ti>    4.00000000000    6.50804481848    4.44163394806   -1.06892138720
|599> NewECP
|600> N_core 0
|601>   lmax f
|602>   s 2
|603>    1      0.860000       9.191690  2
|604>    2      0.172000       0.008301  2
|605>   p 2
|606>    1      0.860000      17.997720  2
|607>    2      0.172000      -0.032600  2
|608>   d 2
|609>    1      1.600000      -9.504310  2
|610>    2      0.320000      -0.151370  2
|611>   f 1
|612>    1      1.000000000    0.000000000 2
|613> end
|614> Ti>    4.00000000000    6.50804466744   -4.44163557493   -1.06892606631
|615> NewECP
|616> N_core 0
|617>   lmax f
|618>   s 2
|619>    1      0.860000       9.191690  2
|620>    2      0.172000       0.008301  2
|621>   p 2
|622>    1      0.860000      17.997720  2
|623>    2      0.172000      -0.032600  2
|624>   d 2
|625>    1      1.600000      -9.504310  2
|626>    2      0.320000      -0.151370  2
|627>   f 1
|628>    1      1.000000000    0.000000000 2
|629> end
|630> Ti>    4.00000000000   -6.50803392749   -4.44163557493   -1.06892606631
|631> NewECP
|632> N_core 0
|633>   lmax f
|634>   s 2
|635>    1      0.860000       9.191690  2
|636>    2      0.172000       0.008301  2
|637>   p 2
|638>    1      0.860000      17.997720  2
|639>    2      0.172000      -0.032600  2
|640>   d 2
|641>    1      1.600000      -9.504310  2
|642>    2      0.320000      -0.151370  2
|643>   f 1
|644>    1      1.000000000    0.000000000 2
|645> end
|646> Ti>    4.00000000000    6.50798723387    2.96109301637   -4.41288206312
|647> NewECP
|648> N_core 0
|649>   lmax f
|650>   s 2
|651>    1      0.860000       9.191690  2
|652>    2      0.172000       0.008301  2
|653>   p 2
|654>    1      0.860000      17.997720  2
|655>    2      0.172000      -0.032600  2
|656>   d 2
|657>    1      1.600000      -9.504310  2
|658>    2      0.320000      -0.151370  2
|659>   f 1
|660>    1      1.000000000    0.000000000 2
|661> end
|662> Ti>    4.00000000000    6.50798723387   -2.96109405556   -4.41288206312
|663> NewECP
|664> N_core 0
|665>   lmax f
|666>   s 2
|667>    1      0.860000       9.191690  2
|668>    2      0.172000       0.008301  2
|669>   p 2
|670>    1      0.860000      17.997720  2
|671>    2      0.172000      -0.032600  2
|672>   d 2
|673>    1      1.600000      -9.504310  2
|674>    2      0.320000      -0.151370  2
|675>   f 1
|676>    1      1.000000000    0.000000000 2
|677> end
|678> Ti>    4.00000000000   -6.50809136106    2.96109301637   -4.41288206312
|679> NewECP
|680> N_core 0
|681>   lmax f
|682>   s 2
|683>    1      0.860000       9.191690  2
|684>    2      0.172000       0.008301  2
|685>   p 2
|686>    1      0.860000      17.997720  2
|687>    2      0.172000      -0.032600  2
|688>   d 2
|689>    1      1.600000      -9.504310  2
|690>    2      0.320000      -0.151370  2
|691>   f 1
|692>    1      1.000000000    0.000000000 2
|693> end
|694> Ti>    4.00000000000   -6.50809136106   -2.96109405556   -4.41288206312
|695> NewECP
|696> N_core 0
|697>   lmax f
|698>   s 2
|699>    1      0.860000       9.191690  2
|700>    2      0.172000       0.008301  2
|701>   p 2
|702>    1      0.860000      17.997720  2
|703>    2      0.172000      -0.032600  2
|704>   d 2
|705>    1      1.600000      -9.504310  2
|706>    2      0.320000      -0.151370  2
|707>   f 1
|708>    1      1.000000000    0.000000000 2
|709> end
|710> Ti>    4.00000000000    3.25401657974   -0.00000100232   -7.78540932970
|711> NewECP
|712> N_core 0
|713>   lmax f
|714>   s 2
|715>    1      0.860000       9.191690  2
|716>    2      0.172000       0.008301  2
|717>   p 2
|718>    1      0.860000      17.997720  2
|719>    2      0.172000      -0.032600  2
|720>   d 2
|721>    1      1.600000      -9.504310  2
|722>    2      0.320000      -0.151370  2
|723>   f 1
|724>    1      1.000000000    0.000000000 2
|725> end
|726> Ti>    4.00000000000   -3.25402271772   -0.00000100232   -7.78540932970
|727> NewECP
|728> N_core 0
|729>   lmax f
|730>   s 2
|731>    1      0.860000       9.191690  2
|732>    2      0.172000       0.008301  2
|733>   p 2
|734>    1      0.860000      17.997720  2
|735>    2      0.172000      -0.032600  2
|736>   d 2
|737>    1      1.600000      -9.504310  2
|738>    2      0.320000      -0.151370  2
|739>   f 1
|740>    1      1.000000000    0.000000000 2
|741> end
|742> Ti>    4.00000000000   -3.25402271772    2.96109253364   -7.78540932970
|743> NewECP
|744> N_core 0
|745>   lmax f
|746>   s 2
|747>    1      0.860000       9.191690  2
|748>    2      0.172000       0.008301  2
|749>   p 2
|750>    1      0.860000      17.997720  2
|751>    2      0.172000      -0.032600  2
|752>   d 2
|753>    1      1.600000      -9.504310  2
|754>    2      0.320000      -0.151370  2
|755>   f 1
|756>    1      1.000000000    0.000000000 2
|757> end
|758> Ti>    4.00000000000    3.25401657974    2.96109253364   -7.78540932970
|759> NewECP
|760> N_core 0
|761>   lmax f
|762>   s 2
|763>    1      0.860000       9.191690  2
|764>    2      0.172000       0.008301  2
|765>   p 2
|766>    1      0.860000      17.997720  2
|767>    2      0.172000      -0.032600  2
|768>   d 2
|769>    1      1.600000      -9.504310  2
|770>    2      0.320000      -0.151370  2
|771>   f 1
|772>    1      1.000000000    0.000000000 2
|773> end
|774> Ti>    4.00000000000    3.25401657974   -2.96109453828   -7.78540932970
|775> NewECP
|776> N_core 0
|777>   lmax f
|778>   s 2
|779>    1      0.860000       9.191690  2
|780>    2      0.172000       0.008301  2
|781>   p 2
|782>    1      0.860000      17.997720  2
|783>    2      0.172000      -0.032600  2
|784>   d 2
|785>    1      1.600000      -9.504310  2
|786>    2      0.320000      -0.151370  2
|787>   f 1
|788>    1      1.000000000    0.000000000 2
|789> end
|790> Ti>    4.00000000000   -3.25402271772   -2.96109453828   -7.78540932970
|791> NewECP
|792> N_core 0
|793>   lmax f
|794>   s 2
|795>    1      0.860000       9.191690  2
|796>    2      0.172000       0.008301  2
|797>   p 2
|798>    1      0.860000      17.997720  2
|799>    2      0.172000      -0.032600  2
|800>   d 2
|801>    1      1.600000      -9.504310  2
|802>    2      0.320000      -0.151370  2
|803>   f 1
|804>    1      1.000000000    0.000000000 2
|805> end
|806> Ti>    4.00000000000   -0.00000306899    4.44163930162   -7.78540932970
|807> NewECP
|808> N_core 0
|809>   lmax f
|810>   s 2
|811>    1      0.860000       9.191690  2
|812>    2      0.172000       0.008301  2
|813>   p 2
|814>    1      0.860000      17.997720  2
|815>    2      0.172000      -0.032600  2
|816>   d 2
|817>    1      1.600000      -9.504310  2
|818>    2      0.320000      -0.151370  2
|819>   f 1
|820>    1      1.000000000    0.000000000 2
|821> end
|822> Ti>    4.00000000000   -0.00000306899   -4.44164130627   -7.78540932970
|823> NewECP
|824> N_core 0
|825>   lmax f
|826>   s 2
|827>    1      0.860000       9.191690  2
|828>    2      0.172000       0.008301  2
|829>   p 2
|830>    1      0.860000      17.997720  2
|831>    2      0.172000      -0.032600  2
|832>   d 2
|833>    1      1.600000      -9.504310  2
|834>    2      0.320000      -0.151370  2
|835>   f 1
|836>    1      1.000000000    0.000000000 2
|837> end
|838> Ti>    4.00000000000   -3.25408714585    7.40273240730   -4.59991327640
|839> NewECP
|840> N_core 0
|841>   lmax f
|842>   s 2
|843>    1      0.860000       9.191690  2
|844>    2      0.172000       0.008301  2
|845>   p 2
|846>    1      0.860000      17.997720  2
|847>    2      0.172000      -0.032600  2
|848>   d 2
|849>    1      1.600000      -9.504310  2
|850>    2      0.320000      -0.151370  2
|851>   f 1
|852>    1      1.000000000    0.000000000 2
|853> end
|854> Ti>    4.00000000000    3.25395215162    7.40273240730   -4.59991327640
|855> NewECP
|856> N_core 0
|857>   lmax f
|858>   s 2
|859>    1      0.860000       9.191690  2
|860>    2      0.172000       0.008301  2
|861>   p 2
|862>    1      0.860000      17.997720  2
|863>    2      0.172000      -0.032600  2
|864>   d 2
|865>    1      1.600000      -9.504310  2
|866>    2      0.320000      -0.151370  2
|867>   f 1
|868>    1      1.000000000    0.000000000 2
|869> end
|870> Ti>    4.00000000000    3.25395195581   -7.40273429615   -4.59991284715
|871> NewECP
|872> N_core 0
|873>   lmax f
|874>   s 2
|875>    1      0.860000       9.191690  2
|876>    2      0.172000       0.008301  2
|877>   p 2
|878>    1      0.860000      17.997720  2
|879>    2      0.172000      -0.032600  2
|880>   d 2
|881>    1      1.600000      -9.504310  2
|882>    2      0.320000      -0.151370  2
|883>   f 1
|884>    1      1.000000000    0.000000000 2
|885> end
|886> Ti>    4.00000000000   -3.25408734165   -7.40273429615   -4.59991284715
|887> NewECP
|888> N_core 0
|889>   lmax f
|890>   s 2
|891>    1      0.860000       9.191690  2
|892>    2      0.172000       0.008301  2
|893>   p 2
|894>    1      0.860000      17.997720  2
|895>    2      0.172000      -0.032600  2
|896>   d 2
|897>    1      1.600000      -9.504310  2
|898>    2      0.320000      -0.151370  2
|899>   f 1
|900>    1      1.000000000    0.000000000 2
|901> end
|902> Ti>    4.00000000000   -3.25401668289    8.88328009748   -1.42716235830
|903> NewECP
|904> N_core 0
|905>   lmax f
|906>   s 2
|907>    1      0.860000       9.191690  2
|908>    2      0.172000       0.008301  2
|909>   p 2
|910>    1      0.860000      17.997720  2
|911>    2      0.172000      -0.032600  2
|912>   d 2
|913>    1      1.600000      -9.504310  2
|914>    2      0.320000      -0.151370  2
|915>   f 1
|916>    1      1.000000000    0.000000000 2
|917> end
|918> Ti>    4.00000000000    3.25402261457    8.88328009748   -1.42716235830
|919> NewECP
|920> N_core 0
|921>   lmax f
|922>   s 2
|923>    1      0.860000       9.191690  2
|924>    2      0.172000       0.008301  2
|925>   p 2
|926>    1      0.860000      17.997720  2
|927>    2      0.172000      -0.032600  2
|928>   d 2
|929>    1      1.600000      -9.504310  2
|930>    2      0.320000      -0.151370  2
|931>   f 1
|932>    1      1.000000000    0.000000000 2
|933> end
|934> Ti>    4.00000000000    3.25402261457   -8.88328111830   -1.42716235830
|935> NewECP
|936> N_core 0
|937>   lmax f
|938>   s 2
|939>    1      0.860000       9.191690  2
|940>    2      0.172000       0.008301  2
|941>   p 2
|942>    1      0.860000      17.997720  2
|943>    2      0.172000      -0.032600  2
|944>   d 2
|945>    1      1.600000      -9.504310  2
|946>    2      0.320000      -0.151370  2
|947>   f 1
|948>    1      1.000000000    0.000000000 2
|949> end
|950> Ti>    4.00000000000   -3.25401668289   -8.88328111830   -1.42716235830
|951> NewECP
|952> N_core 0
|953>   lmax f
|954>   s 2
|955>    1      0.860000       9.191690  2
|956>    2      0.172000       0.008301  2
|957>   p 2
|958>    1      0.860000      17.997720  2
|959>    2      0.172000      -0.032600  2
|960>   d 2
|961>    1      1.600000      -9.504310  2
|962>    2      0.320000      -0.151370  2
|963>   f 1
|964>    1      1.000000000    0.000000000 2
|965> end
|966> Ti>    4.00000000000    6.50798709372    5.92218636178   -4.41288396045
|967> NewECP
|968> N_core 0
|969>   lmax f
|970>   s 2
|971>    1      0.860000       9.191690  2
|972>    2      0.172000       0.008301  2
|973>   p 2
|974>    1      0.860000      17.997720  2
|975>    2      0.172000      -0.032600  2
|976>   d 2
|977>    1      1.600000      -9.504310  2
|978>    2      0.320000      -0.151370  2
|979>   f 1
|980>    1      1.000000000    0.000000000 2
|981> end
|982> Ti>    4.00000000000    6.50798709372   -5.92218778207   -4.41288396045
|983> NewECP
|984> N_core 0
|985>   lmax f
|986>   s 2
|987>    1      0.860000       9.191690  2
|988>    2      0.172000       0.008301  2
|989>   p 2
|990>    1      0.860000      17.997720  2
|991>    2      0.172000      -0.032600  2
|992>   d 2
|993>    1      1.600000      -9.504310  2
|994>    2      0.320000      -0.151370  2
|995>   f 1
|996>    1      1.000000000    0.000000000 2
|997> end
|998> Ti>    4.00000000000   -6.50809150121    5.92218636178   -4.41288396045
|999> NewECP
|1000> N_core 0
|1001>   lmax f
|1002>   s 2
|1003>    1      0.860000       9.191690  2
|1004>    2      0.172000       0.008301  2
|1005>   p 2
|1006>    1      0.860000      17.997720  2
|1007>    2      0.172000      -0.032600  2
|1008>   d 2
|1009>    1      1.600000      -9.504310  2
|1010>    2      0.320000      -0.151370  2
|1011>   f 1
|1012>    1      1.000000000    0.000000000 2
|1013> end
|1014> Ti>    4.00000000000   -6.50809150121   -5.92218778207   -4.41288396045
|1015> NewECP
|1016> N_core 0
|1017>   lmax f
|1018>   s 2
|1019>    1      0.860000       9.191690  2
|1020>    2      0.172000       0.008301  2
|1021>   p 2
|1022>    1      0.860000      17.997720  2
|1023>    2      0.172000      -0.032600  2
|1024>   d 2
|1025>    1      1.600000      -9.504310  2
|1026>    2      0.320000      -0.151370  2
|1027>   f 1
|1028>    1      1.000000000    0.000000000 2
|1029> end
|1030> Ti>    4.00000000000    9.76206248938   -0.00000112036   -1.42716202606
|1031> NewECP
|1032> N_core 0
|1033>   lmax f
|1034>   s 2
|1035>    1      0.860000       9.191690  2
|1036>    2      0.172000       0.008301  2
|1037>   p 2
|1038>    1      0.860000      17.997720  2
|1039>    2      0.172000      -0.032600  2
|1040>   d 2
|1041>    1      1.600000      -9.504310  2
|1042>    2      0.320000      -0.151370  2
|1043>   f 1
|1044>    1      1.000000000    0.000000000 2
|1045> end
|1046> Ti>    4.00000000000   -9.76205540302   -0.00000112036   -1.42716202606
|1047> NewECP
|1048> N_core 0
|1049>   lmax f
|1050>   s 2
|1051>    1      0.860000       9.191690  2
|1052>    2      0.172000       0.008301  2
|1053>   p 2
|1054>    1      0.860000      17.997720  2
|1055>    2      0.172000      -0.032600  2
|1056>   d 2
|1057>    1      1.600000      -9.504310  2
|1058>    2      0.320000      -0.151370  2
|1059>   f 1
|1060>    1      1.000000000    0.000000000 2
|1061> end
|1062> Ti>    4.00000000000   -6.50803392749    7.40273856892   -1.06892606631
|1063> NewECP
|1064> N_core 0
|1065>   lmax f
|1066>   s 2
|1067>    1      0.860000       9.191690  2
|1068>    2      0.172000       0.008301  2
|1069>   p 2
|1070>    1      0.860000      17.997720  2
|1071>    2      0.172000      -0.032600  2
|1072>   d 2
|1073>    1      1.600000      -9.504310  2
|1074>    2      0.320000      -0.151370  2
|1075>   f 1
|1076>    1      1.000000000    0.000000000 2
|1077> end
|1078> Ti>    4.00000000000    6.50804466744    7.40273856892   -1.06892606631
|1079> NewECP
|1080> N_core 0
|1081>   lmax f
|1082>   s 2
|1083>    1      0.860000       9.191690  2
|1084>    2      0.172000       0.008301  2
|1085>   p 2
|1086>    1      0.860000      17.997720  2
|1087>    2      0.172000      -0.032600  2
|1088>   d 2
|1089>    1      1.600000      -9.504310  2
|1090>    2      0.320000      -0.151370  2
|1091>   f 1
|1092>    1      1.000000000    0.000000000 2
|1093> end
|1094> Ti>    4.00000000000    6.50804481848   -7.40274019579   -1.06892138720
|1095> NewECP
|1096> N_core 0
|1097>   lmax f
|1098>   s 2
|1099>    1      0.860000       9.191690  2
|1100>    2      0.172000       0.008301  2
|1101>   p 2
|1102>    1      0.860000      17.997720  2
|1103>    2      0.172000      -0.032600  2
|1104>   d 2
|1105>    1      1.600000      -9.504310  2
|1106>    2      0.320000      -0.151370  2
|1107>   f 1
|1108>    1      1.000000000    0.000000000 2
|1109> end
|1110> Ti>    4.00000000000   -6.50803377645   -7.40274019579   -1.06892138720
|1111> NewECP
|1112> N_core 0
|1113>   lmax f
|1114>   s 2
|1115>    1      0.860000       9.191690  2
|1116>    2      0.172000       0.008301  2
|1117>   p 2
|1118>    1      0.860000      17.997720  2
|1119>    2      0.172000      -0.032600  2
|1120>   d 2
|1121>    1      1.600000      -9.504310  2
|1122>    2      0.320000      -0.151370  2
|1123>   f 1
|1124>    1      1.000000000    0.000000000 2
|1125> end
|1126> Ti>    4.00000000000   -0.00005206359    8.88328008829   -4.41288206312
|1127> NewECP
|1128> N_core 0
|1129>   lmax f
|1130>   s 2
|1131>    1      0.860000       9.191690  2
|1132>    2      0.172000       0.008301  2
|1133>   p 2
|1134>    1      0.860000      17.997720  2
|1135>    2      0.172000      -0.032600  2
|1136>   d 2
|1137>    1      1.600000      -9.504310  2
|1138>    2      0.320000      -0.151370  2
|1139>   f 1
|1140>    1      1.000000000    0.000000000 2
|1141> end
|1142> Ti>    4.00000000000   -0.00005206359   -8.88328112748   -4.41288206312
|1143> NewECP
|1144> N_core 0
|1145>   lmax f
|1146>   s 2
|1147>    1      0.860000       9.191690  2
|1148>    2      0.172000       0.008301  2
|1149>   p 2
|1150>    1      0.860000      17.997720  2
|1151>    2      0.172000      -0.032600  2
|1152>   d 2
|1153>    1      1.600000      -9.504310  2
|1154>    2      0.320000      -0.151370  2
|1155>   f 1
|1156>    1      1.000000000    0.000000000 2
|1157> end
|1158> Ti>    4.00000000000   -6.50804236645    1.48054576566   -7.78540932970
|1159> NewECP
|1160> N_core 0
|1161>   lmax f
|1162>   s 2
|1163>    1      0.860000       9.191690  2
|1164>    2      0.172000       0.008301  2
|1165>   p 2
|1166>    1      0.860000      17.997720  2
|1167>    2      0.172000      -0.032600  2
|1168>   d 2
|1169>    1      1.600000      -9.504310  2
|1170>    2      0.320000      -0.151370  2
|1171>   f 1
|1172>    1      1.000000000    0.000000000 2
|1173> end
|1174> Ti>    4.00000000000    6.50803622848    1.48054576566   -7.78540932970
|1175> NewECP
|1176> N_core 0
|1177>   lmax f
|1178>   s 2
|1179>    1      0.860000       9.191690  2
|1180>    2      0.172000       0.008301  2
|1181>   p 2
|1182>    1      0.860000      17.997720  2
|1183>    2      0.172000      -0.032600  2
|1184>   d 2
|1185>    1      1.600000      -9.504310  2
|1186>    2      0.320000      -0.151370  2
|1187>   f 1
|1188>    1      1.000000000    0.000000000 2
|1189> end
|1190> Ti>    4.00000000000    6.50803622848   -1.48054777030   -7.78540932970
|1191> NewECP
|1192> N_core 0
|1193>   lmax f
|1194>   s 2
|1195>    1      0.860000       9.191690  2
|1196>    2      0.172000       0.008301  2
|1197>   p 2
|1198>    1      0.860000      17.997720  2
|1199>    2      0.172000      -0.032600  2
|1200>   d 2
|1201>    1      1.600000      -9.504310  2
|1202>    2      0.320000      -0.151370  2
|1203>   f 1
|1204>    1      1.000000000    0.000000000 2
|1205> end
|1206> Ti>    4.00000000000   -6.50804236645   -1.48054777030   -7.78540932970
|1207> NewECP
|1208> N_core 0
|1209>   lmax f
|1210>   s 2
|1211>    1      0.860000       9.191690  2
|1212>    2      0.172000       0.008301  2
|1213>   p 2
|1214>    1      0.860000      17.997720  2
|1215>    2      0.172000      -0.032600  2
|1216>   d 2
|1217>    1      1.600000      -9.504310  2
|1218>    2      0.320000      -0.151370  2
|1219>   f 1
|1220>    1      1.000000000    0.000000000 2
|1221> end
|1222> Ti>    4.00000000000   -9.76205598036    2.96109302555   -1.42716235830
|1223> NewECP
|1224> N_core 0
|1225>   lmax f
|1226>   s 2
|1227>    1      0.860000       9.191690  2
|1228>    2      0.172000       0.008301  2
|1229>   p 2
|1230>    1      0.860000      17.997720  2
|1231>    2      0.172000      -0.032600  2
|1232>   d 2
|1233>    1      1.600000      -9.504310  2
|1234>    2      0.320000      -0.151370  2
|1235>   f 1
|1236>    1      1.000000000    0.000000000 2
|1237> end
|1238> Ti>    4.00000000000    9.76206191204    2.96109302555   -1.42716235830
|1239> NewECP
|1240> N_core 0
|1241>   lmax f
|1242>   s 2
|1243>    1      0.860000       9.191690  2
|1244>    2      0.172000       0.008301  2
|1245>   p 2
|1246>    1      0.860000      17.997720  2
|1247>    2      0.172000      -0.032600  2
|1248>   d 2
|1249>    1      1.600000      -9.504310  2
|1250>    2      0.320000      -0.151370  2
|1251>   f 1
|1252>    1      1.000000000    0.000000000 2
|1253> end
|1254> Ti>    4.00000000000    9.76206191204   -2.96109404638   -1.42716235830
|1255> NewECP
|1256> N_core 0
|1257>   lmax f
|1258>   s 2
|1259>    1      0.860000       9.191690  2
|1260>    2      0.172000       0.008301  2
|1261>   p 2
|1262>    1      0.860000      17.997720  2
|1263>    2      0.172000      -0.032600  2
|1264>   d 2
|1265>    1      1.600000      -9.504310  2
|1266>    2      0.320000      -0.151370  2
|1267>   f 1
|1268>    1      1.000000000    0.000000000 2
|1269> end
|1270> Ti>    4.00000000000   -9.76205598036   -2.96109404638   -1.42716235830
|1271> NewECP
|1272> N_core 0
|1273>   lmax f
|1274>   s 2
|1275>    1      0.860000       9.191690  2
|1276>    2      0.172000       0.008301  2
|1277>   p 2
|1278>    1      0.860000      17.997720  2
|1279>    2      0.172000      -0.032600  2
|1280>   d 2
|1281>    1      1.600000      -9.504310  2
|1282>    2      0.320000      -0.151370  2
|1283>   f 1
|1284>    1      1.000000000    0.000000000 2
|1285> end
|1286> Ti>    4.00000000000   -3.25402271772    5.92218606960   -7.78540932970
|1287> NewECP
|1288> N_core 0
|1289>   lmax f
|1290>   s 2
|1291>    1      0.860000       9.191690  2
|1292>    2      0.172000       0.008301  2
|1293>   p 2
|1294>    1      0.860000      17.997720  2
|1295>    2      0.172000      -0.032600  2
|1296>   d 2
|1297>    1      1.600000      -9.504310  2
|1298>    2      0.320000      -0.151370  2
|1299>   f 1
|1300>    1      1.000000000    0.000000000 2
|1301> end
|1302> Ti>    4.00000000000    3.25401657974    5.92218606960   -7.78540932970
|1303> NewECP
|1304> N_core 0
|1305>   lmax f
|1306>   s 2
|1307>    1      0.860000       9.191690  2
|1308>    2      0.172000       0.008301  2
|1309>   p 2
|1310>    1      0.860000      17.997720  2
|1311>    2      0.172000      -0.032600  2
|1312>   d 2
|1313>    1      1.600000      -9.504310  2
|1314>    2      0.320000      -0.151370  2
|1315>   f 1
|1316>    1      1.000000000    0.000000000 2
|1317> end
|1318> Ti>    4.00000000000    3.25401657974   -5.92218807425   -7.78540932970
|1319> NewECP
|1320> N_core 0
|1321>   lmax f
|1322>   s 2
|1323>    1      0.860000       9.191690  2
|1324>    2      0.172000       0.008301  2
|1325>   p 2
|1326>    1      0.860000      17.997720  2
|1327>    2      0.172000      -0.032600  2
|1328>   d 2
|1329>    1      1.600000      -9.504310  2
|1330>    2      0.320000      -0.151370  2
|1331>   f 1
|1332>    1      1.000000000    0.000000000 2
|1333> end
|1334> Ti>    4.00000000000   -3.25402271772   -5.92218807425   -7.78540932970
|1335> NewECP
|1336> N_core 0
|1337>   lmax f
|1338>   s 2
|1339>    1      0.860000       9.191690  2
|1340>    2      0.172000       0.008301  2
|1341>   p 2
|1342>    1      0.860000      17.997720  2
|1343>    2      0.172000      -0.032600  2
|1344>   d 2
|1345>    1      1.600000      -9.504310  2
|1346>    2      0.320000      -0.151370  2
|1347>   f 1
|1348>    1      1.000000000    0.000000000 2
|1349> end
|1350> Ti>    4.00000000000   -0.00000306899    7.40273283758   -7.78540932970
|1351> NewECP
|1352> N_core 0
|1353>   lmax f
|1354>   s 2
|1355>    1      0.860000       9.191690  2
|1356>    2      0.172000       0.008301  2
|1357>   p 2
|1358>    1      0.860000      17.997720  2
|1359>    2      0.172000      -0.032600  2
|1360>   d 2
|1361>    1      1.600000      -9.504310  2
|1362>    2      0.320000      -0.151370  2
|1363>   f 1
|1364>    1      1.000000000    0.000000000 2
|1365> end
|1366> Ti>    4.00000000000   -0.00000306899   -7.40273484223   -7.78540932970
|1367> NewECP
|1368> N_core 0
|1369>   lmax f
|1370>   s 2
|1371>    1      0.860000       9.191690  2
|1372>    2      0.172000       0.008301  2
|1373>   p 2
|1374>    1      0.860000      17.997720  2
|1375>    2      0.172000      -0.032600  2
|1376>   d 2
|1377>    1      1.600000      -9.504310  2
|1378>    2      0.320000      -0.151370  2
|1379>   f 1
|1380>    1      1.000000000    0.000000000 2
|1381> end
|1382> Ti>    4.00000000000    9.76199144908    1.48054533538   -4.59991327640
|1383> NewECP
|1384> N_core 0
|1385>   lmax f
|1386>   s 2
|1387>    1      0.860000       9.191690  2
|1388>    2      0.172000       0.008301  2
|1389>   p 2
|1390>    1      0.860000      17.997720  2
|1391>    2      0.172000      -0.032600  2
|1392>   d 2
|1393>    1      1.600000      -9.504310  2
|1394>    2      0.320000      -0.151370  2
|1395>   f 1
|1396>    1      1.000000000    0.000000000 2
|1397> end
|1398> Ti>    4.00000000000    9.76199125328   -1.48054722422   -4.59991284715
|1399> NewECP
|1400> N_core 0
|1401>   lmax f
|1402>   s 2
|1403>    1      0.860000       9.191690  2
|1404>    2      0.172000       0.008301  2
|1405>   p 2
|1406>    1      0.860000      17.997720  2
|1407>    2      0.172000      -0.032600  2
|1408>   d 2
|1409>    1      1.600000      -9.504310  2
|1410>    2      0.320000      -0.151370  2
|1411>   f 1
|1412>    1      1.000000000    0.000000000 2
|1413> end
|1414> Ti>    4.00000000000   -9.76212644332    1.48054533538   -4.59991327640
|1415> NewECP
|1416> N_core 0
|1417>   lmax f
|1418>   s 2
|1419>    1      0.860000       9.191690  2
|1420>    2      0.172000       0.008301  2
|1421>   p 2
|1422>    1      0.860000      17.997720  2
|1423>    2      0.172000      -0.032600  2
|1424>   d 2
|1425>    1      1.600000      -9.504310  2
|1426>    2      0.320000      -0.151370  2
|1427>   f 1
|1428>    1      1.000000000    0.000000000 2
|1429> end
|1430> Ti>    4.00000000000   -9.76212663912   -1.48054722422   -4.59991284715
|1431> NewECP
|1432> N_core 0
|1433>   lmax f
|1434>   s 2
|1435>    1      0.860000       9.191690  2
|1436>    2      0.172000       0.008301  2
|1437>   p 2
|1438>    1      0.860000      17.997720  2
|1439>    2      0.172000      -0.032600  2
|1440>   d 2
|1441>    1      1.600000      -9.504310  2
|1442>    2      0.320000      -0.151370  2
|1443>   f 1
|1444>    1      1.000000000    0.000000000 2
|1445> end
|1446> Ti>    4.00000000000   -9.76205540302    5.92218595157   -1.42716202606
|1447> NewECP
|1448> N_core 0
|1449>   lmax f
|1450>   s 2
|1451>    1      0.860000       9.191690  2
|1452>    2      0.172000       0.008301  2
|1453>   p 2
|1454>    1      0.860000      17.997720  2
|1455>    2      0.172000      -0.032600  2
|1456>   d 2
|1457>    1      1.600000      -9.504310  2
|1458>    2      0.320000      -0.151370  2
|1459>   f 1
|1460>    1      1.000000000    0.000000000 2
|1461> end
|1462> Ti>    4.00000000000    9.76206248938    5.92218595157   -1.42716202606
|1463> NewECP
|1464> N_core 0
|1465>   lmax f
|1466>   s 2
|1467>    1      0.860000       9.191690  2
|1468>    2      0.172000       0.008301  2
|1469>   p 2
|1470>    1      0.860000      17.997720  2
|1471>    2      0.172000      -0.032600  2
|1472>   d 2
|1473>    1      1.600000      -9.504310  2
|1474>    2      0.320000      -0.151370  2
|1475>   f 1
|1476>    1      1.000000000    0.000000000 2
|1477> end
|1478> Ti>    4.00000000000    9.76206248938   -5.92218819228   -1.42716202606
|1479> NewECP
|1480> N_core 0
|1481>   lmax f
|1482>   s 2
|1483>    1      0.860000       9.191690  2
|1484>    2      0.172000       0.008301  2
|1485>   p 2
|1486>    1      0.860000      17.997720  2
|1487>    2      0.172000      -0.032600  2
|1488>   d 2
|1489>    1      1.600000      -9.504310  2
|1490>    2      0.320000      -0.151370  2
|1491>   f 1
|1492>    1      1.000000000    0.000000000 2
|1493> end
|1494> Ti>    4.00000000000   -9.76205540302   -5.92218819228   -1.42716202606
|1495> NewECP
|1496> N_core 0
|1497>   lmax f
|1498>   s 2
|1499>    1      0.860000       9.191690  2
|1500>    2      0.172000       0.008301  2
|1501>   p 2
|1502>    1      0.860000      17.997720  2
|1503>    2      0.172000      -0.032600  2
|1504>   d 2
|1505>    1      1.600000      -9.504310  2
|1506>    2      0.320000      -0.151370  2
|1507>   f 1
|1508>    1      1.000000000    0.000000000 2
|1509> end
|1510> Ti>    4.00000000000    9.76199125328    4.44163984770   -4.59991284715
|1511> NewECP
|1512> N_core 0
|1513>   lmax f
|1514>   s 2
|1515>    1      0.860000       9.191690  2
|1516>    2      0.172000       0.008301  2
|1517>   p 2
|1518>    1      0.860000      17.997720  2
|1519>    2      0.172000      -0.032600  2
|1520>   d 2
|1521>    1      1.600000      -9.504310  2
|1522>    2      0.320000      -0.151370  2
|1523>   f 1
|1524>    1      1.000000000    0.000000000 2
|1525> end
|1526> Ti>    4.00000000000    9.76199144908   -4.44164173655   -4.59991327640
|1527> NewECP
|1528> N_core 0
|1529>   lmax f
|1530>   s 2
|1531>    1      0.860000       9.191690  2
|1532>    2      0.172000       0.008301  2
|1533>   p 2
|1534>    1      0.860000      17.997720  2
|1535>    2      0.172000      -0.032600  2
|1536>   d 2
|1537>    1      1.600000      -9.504310  2
|1538>    2      0.320000      -0.151370  2
|1539>   f 1
|1540>    1      1.000000000    0.000000000 2
|1541> end
|1542> Ti>    4.00000000000   -9.76212663912    4.44163984770   -4.59991284715
|1543> NewECP
|1544> N_core 0
|1545>   lmax f
|1546>   s 2
|1547>    1      0.860000       9.191690  2
|1548>    2      0.172000       0.008301  2
|1549>   p 2
|1550>    1      0.860000      17.997720  2
|1551>    2      0.172000      -0.032600  2
|1552>   d 2
|1553>    1      1.600000      -9.504310  2
|1554>    2      0.320000      -0.151370  2
|1555>   f 1
|1556>    1      1.000000000    0.000000000 2
|1557> end
|1558> Ti>    4.00000000000   -9.76212644332   -4.44164173655   -4.59991327640
|1559> NewECP
|1560> N_core 0
|1561>   lmax f
|1562>   s 2
|1563>    1      0.860000       9.191690  2
|1564>    2      0.172000       0.008301  2
|1565>   p 2
|1566>    1      0.860000      17.997720  2
|1567>    2      0.172000      -0.032600  2
|1568>   d 2
|1569>    1      1.600000      -9.504310  2
|1570>    2      0.320000      -0.151370  2
|1571>   f 1
|1572>    1      1.000000000    0.000000000 2
|1573> end
|1574>   end
|1575> endd                         ****END OF INPUT****
================================================================================

                       ****************************
                       * Single Point Calculation *
                       ****************************

---------------------------------
CARTESIAN COORDINATES (ANGSTROEM)
---------------------------------
  O      0.000000    0.000000    0.000000
  Ti     0.000005    1.480551   -1.068926
  Ti     0.000006   -1.480553   -1.068921
  O      0.000004   -0.000001   -2.548403
  O     -2.035259    1.480545   -1.111494
  O      2.035265    1.480545   -1.111492
  O      2.035265   -1.480547   -1.111493
  O     -2.035259   -1.480547   -1.111495
  O     -0.000000    2.961092   -0.000003
  O     -0.000000   -2.961096   -0.000003
  Ti     3.254023   -0.000001   -1.427162
  Ti    -3.254016   -0.000001   -1.427162
  O      0.000004    2.961092   -2.548404
  O      0.000004   -2.961095   -2.548404
  O      3.254026   -0.000001   -3.239905
  O     -3.254013   -0.000001   -3.239905
  O     -4.472774    1.480545   -1.111492
  O      4.472780    1.480545   -1.111494
  O      4.472780   -1.480547   -1.111495
  O     -4.472775   -1.480547   -1.111493
  Ti>   -0.000052   -0.000001   -4.412884
  Ti>    0.000006    4.441634   -1.068921
  Ti>    0.000005   -4.441636   -1.068926
  Ti>   -3.254017    2.961093   -1.427162
  Ti>    3.254023    2.961093   -1.427162
  Ti>    3.254023   -2.961094   -1.427162
  Ti>   -3.254017   -2.961094   -1.427162
  Ti>   -0.000052    2.961093   -4.412882
  Ti>   -0.000052   -2.961094   -4.412882
  Ti>    3.253952    1.480545   -4.599913
  Ti>    3.253952   -1.480547   -4.599913
  Ti>   -3.254087    1.480545   -4.599913
  Ti>   -3.254087   -1.480547   -4.599913
  Ti>   -6.508034    1.480551   -1.068926
  Ti>    6.508045    1.480551   -1.068926
  Ti>    6.508045   -1.480553   -1.068921
  Ti>   -6.508034   -1.480553   -1.068921
  Ti>   -3.254016    5.922186   -1.427162
  Ti>    3.254023    5.922186   -1.427162
  Ti>    3.254023   -5.922188   -1.427162
  Ti>   -3.254016   -5.922188   -1.427162
  Ti>    3.253952    4.441640   -4.599913
  Ti>    3.253952   -4.441642   -4.599913
  Ti>   -3.254087    4.441640   -4.599913
  Ti>   -3.254087   -4.441642   -4.599913
  Ti>   -0.000052    5.922186   -4.412884
  Ti>   -0.000052   -5.922188   -4.412884
  Ti>    0.000005    7.402739   -1.068926
  Ti>    0.000006   -7.402740   -1.068921
  Ti>    6.507987   -0.000001   -4.412884
  Ti>   -6.508092   -0.000001   -4.412884
  Ti>   -0.000003    1.480546   -7.785409
  Ti>   -0.000003   -1.480548   -7.785409
  Ti>   -6.508034    4.441634   -1.068921
  Ti>    6.508045    4.441634   -1.068921
  Ti>    6.508045   -4.441636   -1.068926
  Ti>   -6.508034   -4.441636   -1.068926
  Ti>    6.507987    2.961093   -4.412882
  Ti>    6.507987   -2.961094   -4.412882
  Ti>   -6.508091    2.961093   -4.412882
  Ti>   -6.508091   -2.961094   -4.412882
  Ti>    3.254017   -0.000001   -7.785409
  Ti>   -3.254023   -0.000001   -7.785409
  Ti>   -3.254023    2.961093   -7.785409
  Ti>    3.254017    2.961093   -7.785409
  Ti>    3.254017   -2.961095   -7.785409
  Ti>   -3.254023   -2.961095   -7.785409
  Ti>   -0.000003    4.441639   -7.785409
  Ti>   -0.000003   -4.441641   -7.785409
  Ti>   -3.254087    7.402732   -4.599913
  Ti>    3.253952    7.402732   -4.599913
  Ti>    3.253952   -7.402734   -4.599913
  Ti>   -3.254087   -7.402734   -4.599913
  Ti>   -3.254017    8.883280   -1.427162
  Ti>    3.254023    8.883280   -1.427162
  Ti>    3.254023   -8.883281   -1.427162
  Ti>   -3.254017   -8.883281   -1.427162
  Ti>    6.507987    5.922186   -4.412884
  Ti>    6.507987   -5.922188   -4.412884
  Ti>   -6.508092    5.922186   -4.412884
  Ti>   -6.508092   -5.922188   -4.412884
  Ti>    9.762062   -0.000001   -1.427162
  Ti>   -9.762055   -0.000001   -1.427162
  Ti>   -6.508034    7.402739   -1.068926
  Ti>    6.508045    7.402739   -1.068926
  Ti>    6.508045   -7.402740   -1.068921
  Ti>   -6.508034   -7.402740   -1.068921
  Ti>   -0.000052    8.883280   -4.412882
  Ti>   -0.000052   -8.883281   -4.412882
  Ti>   -6.508042    1.480546   -7.785409
  Ti>    6.508036    1.480546   -7.785409
  Ti>    6.508036   -1.480548   -7.785409
  Ti>   -6.508042   -1.480548   -7.785409
  Ti>   -9.762056    2.961093   -1.427162
  Ti>    9.762062    2.961093   -1.427162
  Ti>    9.762062   -2.961094   -1.427162
  Ti>   -9.762056   -2.961094   -1.427162
  Ti>   -3.254023    5.922186   -7.785409
  Ti>    3.254017    5.922186   -7.785409
  Ti>    3.254017   -5.922188   -7.785409
  Ti>   -3.254023   -5.922188   -7.785409
  Ti>   -0.000003    7.402733   -7.785409
  Ti>   -0.000003   -7.402735   -7.785409
  Ti>    9.761991    1.480545   -4.599913
  Ti>    9.761991   -1.480547   -4.599913
  Ti>   -9.762126    1.480545   -4.599913
  Ti>   -9.762127   -1.480547   -4.599913
  Ti>   -9.762055    5.922186   -1.427162
  Ti>    9.762062    5.922186   -1.427162
  Ti>    9.762062   -5.922188   -1.427162
  Ti>   -9.762055   -5.922188   -1.427162
  Ti>    9.761991    4.441640   -4.599913
  Ti>    9.761991   -4.441642   -4.599913
  Ti>   -9.762127    4.441640   -4.599913
  Ti>   -9.762126   -4.441642   -4.599913

----------------------------
CARTESIAN COORDINATES (A.U.)
----------------------------
  NO LB      ZA    FRAG     MASS         X           Y           Z
   0 O     8.0000    0    15.999    0.000000    0.000000    0.000000
   1 Ti   22.0000    0    47.900    0.000010    2.797837   -2.019978
   2 Ti   22.0000    0    47.900    0.000010   -2.797840   -2.019969
   3 O     8.0000    0    15.999    0.000008   -0.000002   -4.815784
   4 O     8.0000    0    15.999   -3.846082    2.797825   -2.100419
   5 O     8.0000    0    15.999    3.846094    2.797825   -2.100415
   6 O     8.0000    0    15.999    3.846093   -2.797828   -2.100417
   7 O     8.0000    0    15.999   -3.846082   -2.797829   -2.100421
   8 O     8.0000    0    15.999   -0.000001    5.595652   -0.000005
   9 O     8.0000    0    15.999   -0.000001   -5.595660   -0.000005
  10 Ti   22.0000    0    47.900    6.149213   -0.000002   -2.696945
  11 Ti   22.0000    0    47.900   -6.149199   -0.000002   -2.696945
  12 O     8.0000    0    15.999    0.000009    5.595653   -4.815786
  13 O     8.0000    0    15.999    0.000009   -5.595659   -4.815786
  14 O     8.0000    0    15.999    6.149218   -0.000001   -6.122533
  15 O     8.0000    0    15.999   -6.149194   -0.000001   -6.122533
  16 O     8.0000    0    15.999   -8.452318    2.797825   -2.100415
  17 O     8.0000    0    15.999    8.452330    2.797825   -2.100419
  18 O     8.0000    0    15.999    8.452330   -2.797829   -2.100421
  19 O     8.0000    0    15.999   -8.452319   -2.797828   -2.100417
  20 Ti>   4.0000    0     0.000   -0.000099   -0.000001   -8.339142
  21 Ti>   4.0000    0     0.000    0.000010    8.393472   -2.019969
  22 Ti>   4.0000    0     0.000    0.000010   -8.393475   -2.019978
  23 Ti>   4.0000    0     0.000   -6.149200    5.595655   -2.696946
  24 Ti>   4.0000    0     0.000    6.149212    5.595655   -2.696946
  25 Ti>   4.0000    0     0.000    6.149212   -5.595657   -2.696946
  26 Ti>   4.0000    0     0.000   -6.149200   -5.595657   -2.696946
  27 Ti>   4.0000    0     0.000   -0.000098    5.595655   -8.339139
  28 Ti>   4.0000    0     0.000   -0.000098   -5.595657   -8.339139
  29 Ti>   4.0000    0     0.000    6.149078    2.797825   -8.692576
  30 Ti>   4.0000    0     0.000    6.149078   -2.797829   -8.692576
  31 Ti>   4.0000    0     0.000   -6.149334    2.797825   -8.692576
  32 Ti>   4.0000    0     0.000   -6.149334   -2.797829   -8.692576
  33 Ti>   4.0000    0     0.000  -12.298402    2.797837   -2.019978
  34 Ti>   4.0000    0     0.000   12.298422    2.797837   -2.019978
  35 Ti>   4.0000    0     0.000   12.298422   -2.797840   -2.019969
  36 Ti>   4.0000    0     0.000  -12.298402   -2.797840   -2.019969
  37 Ti>   4.0000    0     0.000   -6.149199   11.191310   -2.696945
  38 Ti>   4.0000    0     0.000    6.149213   11.191310   -2.696945
  39 Ti>   4.0000    0     0.000    6.149213  -11.191314   -2.696945
  40 Ti>   4.0000    0     0.000   -6.149199  -11.191314   -2.696945
  41 Ti>   4.0000    0     0.000    6.149078    8.393483   -8.692576
  42 Ti>   4.0000    0     0.000    6.149078   -8.393486   -8.692576
  43 Ti>   4.0000    0     0.000   -6.149334    8.393483   -8.692576
  44 Ti>   4.0000    0     0.000   -6.149334   -8.393486   -8.692576
  45 Ti>   4.0000    0     0.000   -0.000099   11.191310   -8.339142
  46 Ti>   4.0000    0     0.000   -0.000099  -11.191313   -8.339142
  47 Ti>   4.0000    0     0.000    0.000010   13.989149   -2.019978
  48 Ti>   4.0000    0     0.000    0.000010  -13.989152   -2.019969
  49 Ti>   4.0000    0     0.000   12.298313   -0.000001   -8.339142
  50 Ti>   4.0000    0     0.000  -12.298511   -0.000001   -8.339142
  51 Ti>   4.0000    0     0.000   -0.000006    2.797826  -14.712291
  52 Ti>   4.0000    0     0.000   -0.000006   -2.797830  -14.712291
  53 Ti>   4.0000    0     0.000  -12.298402    8.393472   -2.019969
  54 Ti>   4.0000    0     0.000   12.298422    8.393472   -2.019969
  55 Ti>   4.0000    0     0.000   12.298422   -8.393475   -2.019978
  56 Ti>   4.0000    0     0.000  -12.298402   -8.393475   -2.019978
  57 Ti>   4.0000    0     0.000   12.298314    5.595655   -8.339139
  58 Ti>   4.0000    0     0.000   12.298314   -5.595657   -8.339139
  59 Ti>   4.0000    0     0.000  -12.298510    5.595655   -8.339139
  60 Ti>   4.0000    0     0.000  -12.298510   -5.595657   -8.339139
  61 Ti>   4.0000    0     0.000    6.149200   -0.000002  -14.712291
  62 Ti>   4.0000    0     0.000   -6.149212   -0.000002  -14.712291
  63 Ti>   4.0000    0     0.000   -6.149212    5.595654  -14.712291
  64 Ti>   4.0000    0     0.000    6.149200    5.595654  -14.712291
  65 Ti>   4.0000    0     0.000    6.149200   -5.595658  -14.712291
  66 Ti>   4.0000    0     0.000   -6.149212   -5.595658  -14.712291
  67 Ti>   4.0000    0     0.000   -0.000006    8.393482  -14.712291
  68 Ti>   4.0000    0     0.000   -0.000006   -8.393486  -14.712291
  69 Ti>   4.0000    0     0.000   -6.149334   13.989137   -8.692576
  70 Ti>   4.0000    0     0.000    6.149078   13.989137   -8.692576
  71 Ti>   4.0000    0     0.000    6.149078  -13.989140   -8.692576
  72 Ti>   4.0000    0     0.000   -6.149334  -13.989140   -8.692576
  73 Ti>   4.0000    0     0.000   -6.149200   16.786967   -2.696946
  74 Ti>   4.0000    0     0.000    6.149212   16.786967   -2.696946
  75 Ti>   4.0000    0     0.000    6.149212  -16.786968   -2.696946
  76 Ti>   4.0000    0     0.000   -6.149200  -16.786968   -2.696946
  77 Ti>   4.0000    0     0.000   12.298313   11.191310   -8.339142
  78 Ti>   4.0000    0     0.000   12.298313  -11.191313   -8.339142
  79 Ti>   4.0000    0     0.000  -12.298511   11.191310   -8.339142
  80 Ti>   4.0000    0     0.000  -12.298511  -11.191313   -8.339142
  81 Ti>   4.0000    0     0.000   18.447625   -0.000002   -2.696945
  82 Ti>   4.0000    0     0.000  -18.447611   -0.000002   -2.696945
  83 Ti>   4.0000    0     0.000  -12.298402   13.989149   -2.019978
  84 Ti>   4.0000    0     0.000   12.298422   13.989149   -2.019978
  85 Ti>   4.0000    0     0.000   12.298422  -13.989152   -2.019969
  86 Ti>   4.0000    0     0.000  -12.298402  -13.989152   -2.019969
  87 Ti>   4.0000    0     0.000   -0.000098   16.786967   -8.339139
  88 Ti>   4.0000    0     0.000   -0.000098  -16.786969   -8.339139
  89 Ti>   4.0000    0     0.000  -12.298418    2.797826  -14.712291
  90 Ti>   4.0000    0     0.000   12.298406    2.797826  -14.712291
  91 Ti>   4.0000    0     0.000   12.298406   -2.797830  -14.712291
  92 Ti>   4.0000    0     0.000  -12.298418   -2.797830  -14.712291
  93 Ti>   4.0000    0     0.000  -18.447612    5.595655   -2.696946
  94 Ti>   4.0000    0     0.000   18.447624    5.595655   -2.696946
  95 Ti>   4.0000    0     0.000   18.447624   -5.595657   -2.696946
  96 Ti>   4.0000    0     0.000  -18.447612   -5.595657   -2.696946
  97 Ti>   4.0000    0     0.000   -6.149212   11.191310  -14.712291
  98 Ti>   4.0000    0     0.000    6.149200   11.191310  -14.712291
  99 Ti>   4.0000    0     0.000    6.149200  -11.191314  -14.712291
 100 Ti>   4.0000    0     0.000   -6.149212  -11.191314  -14.712291
 101 Ti>   4.0000    0     0.000   -0.000006   13.989138  -14.712291
 102 Ti>   4.0000    0     0.000   -0.000006  -13.989141  -14.712291
 103 Ti>   4.0000    0     0.000   18.447490    2.797825   -8.692576
 104 Ti>   4.0000    0     0.000   18.447490   -2.797829   -8.692576
 105 Ti>   4.0000    0     0.000  -18.447745    2.797825   -8.692576
 106 Ti>   4.0000    0     0.000  -18.447746   -2.797829   -8.692576
 107 Ti>   4.0000    0     0.000  -18.447611   11.191310   -2.696945
 108 Ti>   4.0000    0     0.000   18.447625   11.191310   -2.696945
 109 Ti>   4.0000    0     0.000   18.447625  -11.191314   -2.696945
 110 Ti>   4.0000    0     0.000  -18.447611  -11.191314   -2.696945
 111 Ti>   4.0000    0     0.000   18.447490    8.393483   -8.692576
 112 Ti>   4.0000    0     0.000   18.447490   -8.393486   -8.692576
 113 Ti>   4.0000    0     0.000  -18.447746    8.393483   -8.692576
 114 Ti>   4.0000    0     0.000  -18.447745   -8.393486   -8.692576
> coreless ECP center with (optional) point charge

--------------------------------
INTERNAL COORDINATES (ANGSTROEM)
--------------------------------
 O      0   0   0     0.000000000000     0.00000000     0.00000000
 Ti     1   0   0     1.826098483252     0.00000000     0.00000000
 Ti     1   2   0     1.826097063306   108.34321415     0.00000000
 O      2   1   3     2.093057118869    80.80764629     0.00000000
 O      2   1   3     2.035709617889    90.70101716    89.02863937
 O      2   1   3     2.035705038603    90.70132129   270.97178739
 O      3   1   2     2.035704375863    90.70142476    89.02807847
 O      3   1   2     2.035709824520    90.70111581   270.97149260
 O      2   1   3     1.826087614204   108.34292419   179.99999251
 O      3   1   2     1.826086776018   108.34323519   180.00001748
 Ti     7   3   1     1.943459621643   129.07739454   313.09097521
 Ti     8   3   1     1.943458546842   129.07736791    46.90890739
 O      2   1   3     2.093049508223   170.84902752     0.00000000
 O      3   1   2     2.093053849171   170.84881627     0.00000000
 O     11   7   3     1.812742988802    99.34782772   276.10590783
 O     12   8   3     1.812742988802    99.34765676    83.89407809
 O     12   8   3     1.943459832055   161.30450066   263.89411762
 O     11   7   3     1.943458846702   161.30450541    96.10583576
 O     11   7   3     1.943458546848    77.67407929   178.49038525
 O     12   8   3     1.943459621649    77.67407929   181.50981115
 Ti>    4   2   1     1.864480942980   134.97916629   179.99739930
 Ti>    9   2   1     1.826086776009   108.34294524   179.99998252
 Ti>   10   3   1     1.826087614204   108.34294524   180.00000759
 Ti>    5   2   1     1.943460434294   129.07697438   155.26413262
 Ti>   18  11   7     1.943460434301    99.24805639   258.83818749
 Ti>   19  11   7     1.943459506357    99.24804344    18.77755699
 Ti>    8   3   1     1.943459506351   129.07704137   204.73588289
 Ti>   13   2   9     1.864477681998   134.97947132   180.00261235
 Ti>   14   3  10     1.864477681998   134.97947069   179.99738765
 Ti>   15  11   7     2.010382762613   132.57015100   140.53647680
 Ti>   15  11   7     2.010382925550   132.57009955   320.54236781
 Ti>   16  12   8     2.010382762613   132.57015100   219.45762484
 Ti>   16  12   8     2.010382925550   132.57009955    39.46351586
 Ti>   17  12   8     2.035705038593   129.07733641   263.89383266
 Ti>   18  11   7     2.035709617889   129.07733895    96.10621133
 Ti>   19  11   7     2.035709824520   129.07736791   181.50981115
 Ti>   20  12   8     2.035704375853   129.07739454   178.49038525
 Ti>   24   5   2     2.961092926020   139.62402324   342.73205762
 Ti>   25  18  11     2.961092926020   139.62402324   179.99998944
 Ti>   26  19  11     2.961094145900   139.62400890   180.00001053
 Ti>   27   8   3     2.961094145900   139.62400890    17.26767399
 Ti>   30  15  11     2.961094512320   137.42985590     0.00000000
 Ti>   31  15  11     2.961094512330   137.42989339     0.00000000
 Ti>   32  16  12     2.961094512320   137.42985590     0.00000000
 Ti>   33  16  12     2.961094512330   137.42989339     0.00000000
 Ti>   28  13   2     2.961093345411    90.00006819   179.99829400
 Ti>   29  14   3     2.961093726511    90.00000523   180.00170016
 Ti>   22   9   2     2.961104620864   144.17164420   179.99999001
 Ti>   23  10   3     2.961104620864   144.17130104   179.99998997
 Ti>   15  11   7     3.458922112887   109.82316985   230.53942533
 Ti>   16  12   8     3.459032348227   109.82233196   129.46055976
 Ti>   21   4   2     3.683197691633   156.29842650     0.00000000
 Ti>   52  21   4     2.961093535960    66.29841404   179.99359428
 Ti>   34  17  12     2.961082451064    90.00017397   191.08674828
 Ti>   35  18  11     2.961082451064    90.00018251   168.91338009
 Ti>   36  19  11     2.961082451074    90.00016116   191.08662526
 Ti>   37  20  12     2.961082451074    90.00017336   168.91325184
 Ti>   50  15  11     2.961093726511    89.99998888   270.00001877
 Ti>   50  15  11     2.961093345421    89.99999132    89.99994785
 Ti>   51  16  12     2.961093726511    89.99998378    89.99998307
 Ti>   51  16  12     2.961093345421    89.99998622   270.00005031
 Ti>   30  15  11     3.512748577370   107.64219900   180.00028382
 Ti>   32  16  12     3.512748577370   107.64219900   180.00028381
 Ti>   63  32  16     2.961093535960    65.07206331   180.00303221
 Ti>   62  30  15     2.961093535960    65.07206331   180.00303221
 Ti>   62  30  15     2.961093535960   114.92793669     0.00000000
 Ti>   63  32  16     2.961093535960   114.92793669     0.00000000
 Ti>   52  21   4     2.961093535960   113.70158596     0.00000000
 Ti>   53  52  21     2.961093535970   180.00000000     0.00000000
 Ti>   44  32  16     2.961092559600   179.99998163     0.00000000
 Ti>   42  30  15     2.961092559600   179.99998163     0.00000000
 Ti>   43  31  15     2.961092559600   179.99998173     0.00000000
 Ti>   45  33  16     2.961092559600   179.99998173     0.00000000
 Ti>   38  24   5     2.961094145910   179.99997423   164.60199535
 Ti>   39  25  18     2.961094145910   179.99997423   164.60199533
 Ti>   40  26  19     2.961092926020   179.99997423   195.39805728
 Ti>   41  27   8     2.961092926020   179.99997423   195.39805726
 Ti>   58  50  15     2.961093345411   179.99992638   254.40151263
 Ti>   59  50  15     2.961093726511   179.99992636   105.59848737
 Ti>   60  51  16     2.961093345411   179.99992638   114.04701444
 Ti>   61  51  16     2.961093726511   179.99992636   245.95298556
 Ti>   35  18  11     3.592909829252   154.60775570     4.97250202
 Ti>   34  17  12     3.592913138226   154.60779950   355.02774318
 Ti>   54  34  17     2.961104620864   179.99981882    90.65073199
 Ti>   55  35  18     2.961104620864   179.99981882   273.04701844
 Ti>   56  36  19     2.961104620864   179.99981882   266.95281682
 Ti>   57  37  20     2.961104620864   179.99981882    89.34943732
 Ti>   46  28  13     2.961093726511   179.99992634     4.22285443
 Ti>   47  29  14     2.961093345411   179.99992636   355.77714557
 Ti>   63  32  16     3.575005259646    79.94654421   112.42378605
 Ti>   62  30  15     3.575005259655    79.94848707   247.58144362
 Ti>   91  62  30     2.961093535960    65.53493421   112.93104381
 Ti>   90  63  32     2.961093535960    65.53493421   247.06977032
 Ti>   83  34  17     2.961094145910    65.66471055   197.67420369
 Ti>   82  35  18     2.961094145910    65.66466448   162.32566100
 Ti>   82  35  18     2.961092926020   114.33531472   342.32567771
 Ti>   83  34  17     2.961092926020   114.33531307    17.67419235
 Ti>   64  63  32     2.961093535960   180.00000000     0.00000000
 Ti>   65  62  30     2.961093535960   180.00000000     0.00000000
 Ti>   66  62  30     2.961093535970   179.99999829     0.00000000
 Ti>   67  63  32     2.961093535970   179.99999829     0.00000000
 Ti>   68  52  21     2.961093535960   179.99999879     0.00000000
 Ti>   69  53  52     2.961093535960   179.99999829     0.00000000
 Ti>   82  35  18     3.501195268645    85.18610098    97.64481695
 Ti>  104  82  35     2.961092559600    64.98414806   245.35184145
 Ti>   83  34  17     3.501195268645    85.18821866   262.35407815
 Ti>  106  83  34     2.961092559600    64.98414806   114.64914587
 Ti>   94  83  34     2.961092926020   179.99997423   336.36341085
 Ti>   95  82  35     2.961092926020   179.99997423   143.79858566
 Ti>   96  82  35     2.961094145900   179.99997416   216.20140746
 Ti>   97  83  34     2.961094145900   179.99997416    23.63659383
 Ti>  104  82  35     2.961094512320   115.01583533    65.35183309
 Ti>  105 104  82     2.961094512330   179.99998173     0.00000000
 Ti>  106  83  34     2.961094512320   115.01583533   294.64913751
 Ti>  107 106  83     2.961094512330   179.99998173     0.00000000

---------------------------
INTERNAL COORDINATES (A.U.)
[...]
 89 Q      0.0000     4.0000     4.0000     0.0000     0.0000     0.0000
 90 Q      0.0000     4.0000     4.0000     0.0000     0.0000     0.0000
 91 Q      0.0000     4.0000     4.0000     0.0000     0.0000     0.0000
 92 Q      0.0000     4.0000     4.0000     0.0000     0.0000     0.0000
 93 Q      0.0000     4.0000     4.0000     0.0000     0.0000     0.0000
 94 Q      0.0000     4.0000     4.0000     0.0000     0.0000     0.0000
 95 Q      0.0000     4.0000     4.0000     0.0000     0.0000     0.0000
 96 Q      0.0000     4.0000     4.0000     0.0000     0.0000     0.0000
 97 Q      0.0000     4.0000     4.0000     0.0000     0.0000     0.0000
 98 Q      0.0000     4.0000     4.0000     0.0000     0.0000     0.0000
 99 Q      0.0000     4.0000     4.0000     0.0000     0.0000     0.0000
100 Q      0.0000     4.0000     4.0000     0.0000     0.0000     0.0000
101 Q      0.0000     4.0000     4.0000     0.0000     0.0000     0.0000
102 Q      0.0000     4.0000     4.0000     0.0000     0.0000     0.0000
103 Q      0.0000     4.0000     4.0000     0.0000     0.0000     0.0000
104 Q      0.0000     4.0000     4.0000     0.0000     0.0000     0.0000
105 Q      0.0000     4.0000     4.0000     0.0000     0.0000     0.0000
106 Q      0.0000     4.0000     4.0000     0.0000     0.0000     0.0000
107 Q      0.0000     4.0000     4.0000     0.0000     0.0000     0.0000
108 Q      0.0000     4.0000     4.0000     0.0000     0.0000     0.0000
109 Q      0.0000     4.0000     4.0000     0.0000     0.0000     0.0000
110 Q      0.0000     4.0000     4.0000     0.0000     0.0000     0.0000
111 Q      0.0000     4.0000     4.0000     0.0000     0.0000     0.0000
112 Q      0.0000     4.0000     4.0000     0.0000     0.0000     0.0000
113 Q      0.0000     4.0000     4.0000     0.0000     0.0000     0.0000
114 Q      0.0000     4.0000     4.0000     0.0000     0.0000     0.0000

  Mayer bond orders larger than 0.100000
B(  0-O ,  1-Ti) :   1.1225 B(  0-O ,  2-Ti) :   1.1226 B(  1-Ti,  3-O ) :   0.4262 
B(  1-Ti,  4-O ) :   0.2115 B(  1-Ti,  5-O ) :   0.2116 B(  1-Ti,  8-O ) :   1.5685 
B(  1-Ti, 12-O ) :   0.2418 B(  2-Ti,  3-O ) :   0.4261 B(  2-Ti,  6-O ) :   0.2115 
B(  2-Ti,  7-O ) :   0.2115 B(  2-Ti,  9-O ) :   1.5685 B(  2-Ti, 13-O ) :   0.2417 
B(  4-O , 11-Ti) :   0.8742 B(  4-O , 16-O ) :  -0.1035 B(  5-O , 10-Ti) :   0.8742 
B(  5-O , 17-O ) :  -0.1035 B(  6-O , 10-Ti) :   0.8742 B(  6-O , 18-O ) :  -0.1035 
B(  7-O , 11-Ti) :   0.8742 B(  7-O , 19-O ) :  -0.1035 B(  8-O , 12-O ) :  -0.1284 
B(  9-O , 13-O ) :  -0.1284 B( 10-Ti, 14-O ) :   0.5868 B( 10-Ti, 17-O ) :   0.7039 
B( 10-Ti, 18-O ) :   0.7039 B( 11-Ti, 15-O ) :   0.5868 B( 11-Ti, 16-O ) :   0.7039 
B( 11-Ti, 19-O ) :   0.7039 

-------
TIMINGS
-------

Total SCF time: 0 days 0 hours 2 min 57 sec 

Total time                  ....     177.426 sec
Sum of individual times     ....     175.161 sec  ( 98.7%)

Fock matrix formation       ....     161.069 sec  ( 90.8%)
  Split-RI-J                ....      17.063 sec  ( 10.6% of F)
  Chain of spheres X        ....     125.277 sec  ( 77.8% of F)
  XC integration            ....      16.668 sec  ( 10.3% of F)
    Basis function eval.    ....       3.518 sec  ( 21.1% of XC)
    Density eval.           ....       5.917 sec  ( 35.5% of XC)
    XC-Functional eval.     ....       0.356 sec  (  2.1% of XC)
    XC-Potential eval.      ....       4.539 sec  ( 27.2% of XC)
Diagonalization             ....       7.129 sec  (  4.0%)
Density matrix formation    ....       0.294 sec  (  0.2%)
Population analysis         ....       0.185 sec  (  0.1%)
Initial guess               ....       0.277 sec  (  0.2%)
Orbital Transformation      ....       0.000 sec  (  0.0%)
Orbital Orthonormalization  ....       0.000 sec  (  0.0%)
DIIS solution               ....       4.011 sec  (  2.3%)
Grid generation             ....       2.197 sec  (  1.2%)

Maximum memory used throughout the entire SCF-calculation: 145.8 MB


           ************************************************************
           *        Program running with 20 parallel MPI-processes    *
           *              working on a common directory               *
           ************************************************************

------------------------------------------------------------------------------
                                ORCA  MP2 
------------------------------------------------------------------------------

Freezing NCore=104 chemical core electrons
Initializing SHARK ... done


------------------------------------------------------------------------------
                           ORCA ORBITAL LOCALIZATION
------------------------------------------------------------------------------

Input orbitals are from                  ... orca.gbw
Output orbitals are to                   ... orca.loc
Max. number of iterations                ... 128
Localizations seeded randomly            ... off
Convergence tolerance                    ... 2.000e-07
Treshold for strong local MOs            ... 9.500e-01
Treshold for bond MOs                    ... 8.500e-01
Operator                                 ... 0
Orbital range for localization           ... 52 to 115
Localization criterion                   ... FOSTER-BOYS (AUGMENTED HESSIAN)
Doing the dipole integrals     ... o.k.
Initial value of the localization sum :  2884.201550
ITERATION   0 : L= 3111.1411148841 DL=  2.27e+02 (AVERGE_DL)=    0.3355133809 
ITERATION   1 : L= 3124.7435818122 DL=  1.36e+01 (AVERGE_DL)=    0.0821416789 
ITERATION   2 : L= 3125.5003585743 DL=  7.57e-01 (AVERGE_DL)=    0.0193748625 
ITERATION   3 : L= 3125.6666906242 DL=  1.66e-01 (AVERGE_DL)=    0.0090832801 
ITERATION   4 : L= 3125.7575551976 DL=  9.09e-02 (AVERGE_DL)=    0.0067135470 
ITERATION   5 : L= 3125.8110931276 DL=  5.35e-02 (AVERGE_DL)=    0.0051533012 
ITERATION   6 : L= 3125.8403271266 DL=  2.92e-02 (AVERGE_DL)=    0.0038080168 
ITERATION   7 : L= 3125.8553188786 DL=  1.50e-02 (AVERGE_DL)=    0.0027269736 
ITERATION   8 : L= 3125.8627469123 DL=  7.43e-03 (AVERGE_DL)=    0.0019195157 
ITERATION   9 : L= 3125.8664877434 DL=  3.74e-03 (AVERGE_DL)=    0.0013621934 
ITERATION  10 : L= 3125.8684860686 DL=  2.00e-03 (AVERGE_DL)=    0.0009956067 
ITERATION  11 : L= 3125.8696610289 DL=  1.17e-03 (AVERGE_DL)=    0.0007634249 
ITERATION  12 : L= 3125.8704361786 DL=  7.75e-04 (AVERGE_DL)=    0.0006200797 
ITERATION  13 : L= 3125.8710082130 DL=  5.72e-04 (AVERGE_DL)=    0.0005326793 
ITERATION  14 : L= 3125.8714711646 DL=  4.63e-04 (AVERGE_DL)=    0.0004792063 
ITERATION  15 : L= 3125.8718721554 DL=  4.01e-04 (AVERGE_DL)=    0.0004459868 
ITERATION  16 : L= 3125.8722360133 DL=  3.64e-04 (AVERGE_DL)=    0.0004248354 
ITERATION  17 : L= 3125.8725765508 DL=  3.41e-04 (AVERGE_DL)=    0.0004109956 
ITERATION  18 : L= 3125.8729017279 DL=  3.25e-04 (AVERGE_DL)=    0.0004016195 
ITERATION  19 : L= 3125.8732162694 DL=  3.15e-04 (AVERGE_DL)=    0.0003949969 
ITERATION  20 : L= 3125.8735230220 DL=  3.07e-04 (AVERGE_DL)=    0.0003900757 
ITERATION  21 : L= 3125.8738236655 DL=  3.01e-04 (AVERGE_DL)=    0.0003861719 
ITERATION  22 : L= 3125.8741192020 DL=  2.96e-04 (AVERGE_DL)=    0.0003828779 
ITERATION  23 : L= 3125.8744101729 DL=  2.91e-04 (AVERGE_DL)=    0.0003799089 
ITERATION  24 : L= 3125.8746968401 DL=  2.87e-04 (AVERGE_DL)=    0.0003770889 
ITERATION  25 : L= 3125.8749793000 DL=  2.82e-04 (AVERGE_DL)=    0.0003743115 
ITERATION  26 : L= 3125.8752575192 DL=  2.78e-04 (AVERGE_DL)=    0.0003714910 
DETECTED SLOW CONVERGENCE - QUITTING

------------------------------------------------------
AUGMENTED HESSIAN OPTIMIZATION OF FOSTER-BOYS ORBITALS
------------------------------------------------------

Spin operator:           0
Orbital window:          52 to 115
Number of iterations:    128
Gradient tolerance:      2.000e-07
Number of pairs:         2016
Davidson threshold:      2000
Diagonalization method:  Davidson
Davidson roots(initial)  16
Davidson roots(final)    40
Max. Davidson iterations 128
Max. Davidson dimension  10
Iter:    0   L: 3125.8752575192   Grad. norm: 2.685739e-02
Iter:    1   L: 3125.8824854630   Grad. norm: 1.472066e-01
Iter:    2   L: 3125.8834633035   Grad. norm: 8.105302e-03
   *** Likely close to a maximum now. ***
       Augmented Hessian eigenvalues:  4.15e-06 -2.41e-02 -2.41e-02 -2.78e-02 ... 
Iter:    3   L: 3125.8834652305   Grad. norm: 4.259867e-03
Iter:    4   L: 3125.8834654041   Grad. norm: 4.890405e-04
Iter:    5   L: 3125.8834654097   Grad. norm: 1.362115e-04
Iter:    6   L: 3125.8834654100   Grad. norm: 1.961970e-08
LOCALIZATION HAS CONVERGED.

Eigenvalues of the Hessian:
  Davidson eigenvalue tolerance: 1.0e-06
  Davidson residual tolerance:   1.0e-06
  0 -2.398e-02
  1 -2.401e-02
  2 -2.784e-02
  3 -2.785e-02
  4 -5.480e-02
  5 -9.328e-02
  6 -9.329e-02
  7 -1.542e-01
  8 -1.542e-01
  9 -1.543e-01
    ...


------------------------------------------------------------------------------- 
                    LOCALIZED MOLECULAR ORBITAL COMPOSITIONS                   
------------------------------------------------------------------------------- 

The Mulliken populations for each LMO on each atom are computed
The LMO`s will be ordered according to atom index and type
  (A) Strongly localized MO`s have populations of >=0.950 on one atom
  (B) Two center bond orbitals have populations of >=0.850 on two atoms
  (C) Other MO`s are considered to be `delocalized`

FOUND  -  34 strongly local MO`s
       -  30 two center bond MO`s
       -   0 significantly delocalized MO`s

Rather strongly localized orbitals:
MO  85:  19O  -   0.952547
MO  84:  19O  -   0.981073
MO  83:  19O  -   1.000308
MO  82:  18O  -   0.952547
MO  81:  18O  -   0.981072
MO  80:  18O  -   1.000308
MO  79:  17O  -   0.952546
MO  78:  17O  -   0.981072
MO  77:  17O  -   1.000308
MO  76:  16O  -   0.952547
MO  75:  16O  -   0.981073
MO  74:  16O  -   1.000308
MO  73:  15O  -   1.011218
MO  72:  15O  -   0.988101
MO  71:  15O  -   0.988099
MO  70:  14O  -   1.011209
MO  69:  14O  -   0.988105
MO  68:  14O  -   0.988103
MO  67:  13O  -   1.001059
MO  66:  13O  -   1.001092
MO  65:  13O  -   1.005282
MO  64:  12O  -   1.001060
MO  63:  12O  -   1.001092
MO  62:  12O  -   1.005283
MO  61:   7O  -   0.974305
MO  60:   7O  -   0.995132
MO  59:   6O  -   0.974317
MO  58:   6O  -   0.995106
MO  57:   5O  -   0.974317
MO  56:   5O  -   0.995105
MO  55:   4O  -   0.974304
MO  54:   4O  -   0.995133
MO  53:   3O  -   1.011426
MO  52:   3O  -   1.011394
Bond-like localized orbitals:
MO 115:  19O  -   0.845511  and  11Ti -   0.144904
MO 114:  18O  -   0.845507  and  10Ti -   0.144910
MO 113:  17O  -   0.845507  and  10Ti -   0.144909
MO 112:  16O  -   0.845510  and  11Ti -   0.144905
MO 111:  15O  -   0.808896  and  11Ti -   0.206371
MO 110:  14O  -   0.808895  and  10Ti -   0.206372
MO 109:  13O  -   0.908614  and   2Ti -   0.089060
MO 108:  12O  -   0.908612  and   1Ti -   0.089064
MO 107:   9O  -   0.738852  and   2Ti -   0.266259
MO 106:   9O  -   0.885971  and   2Ti -   0.126313
MO 105:   9O  -   0.903946  and   2Ti -   0.089699
MO 104:   9O  -   0.946473  and   2Ti -   0.055882
MO 103:   8O  -   0.738855  and   1Ti -   0.266256
MO 102:   8O  -   0.885970  and   1Ti -   0.126314
MO 101:   8O  -   0.903948  and   1Ti -   0.089697
MO 100:   8O  -   0.946471  and   1Ti -   0.055884
MO  99:   7O  -   0.865038  and   2Ti -   0.018599
MO  98:   7O  -   0.830627  and   2Ti -   0.150405
MO  97:   6O  -   0.830619  and   2Ti -   0.150395
MO  96:   6O  -   0.865043  and   2Ti -   0.018622
MO  95:   5O  -   0.830619  and   1Ti -   0.150393
MO  94:   5O  -   0.865041  and   1Ti -   0.018625
MO  93:   4O  -   0.865035  and   1Ti -   0.018601
MO  92:   4O  -   0.830625  and   1Ti -   0.150407
MO  91:   3O  -   0.852584  and   2Ti -   0.120183
MO  90:   3O  -   0.852583  and   1Ti -   0.120186
MO  89:   2Ti -   0.290534  and   0O  -   0.723198
MO  88:   1Ti -   0.043980  and   0O  -   0.905767
MO  87:   1Ti -   0.290537  and   0O  -   0.723194
MO  86:   1Ti -   0.067633  and   0O  -   0.857063
Localized MO's were stored in: orca.loc



Calculating differential overlap integrals ... ok
Threshold for domain construction in prescreening: TCutDOPre = 3.0e-02

--------------------------
ELECTRON PAIR PRESCREENING
--------------------------

Dipole-based pair screening          .... used

   TCutDOij = 1.000000e-05
   TCutPre  = 1.000000e-06
   .... Finished loop over pairs
Total time spent in the prescreening                  ...     0.032 sec
sum of pair energies estimated for screened out pairs ...       0.000000000000 Eh

---------------------------
MAP CONSTRUCTION THRESHOLDS
---------------------------
    TCutMKN     ...     1.0e-03
    TCutDO      ...     1.0e-02
    TCutC(MO)   ...     1.0e-03
    TCutC(PAO)  ...     1.0e-03

--------------------------------
LOCAL RI TRANSFORMATION (IAVPAO)
--------------------------------

Orbital window:      52 to 115
Number of PAOs:     752
Basis functions:    752 (248 shells)
Aux. functions:    2080 (520 shells)
Use SHARK:           on

Processing maps (0.0 sec)
Average map sizes:
   Aux shells -> MOs              64.0
   Aux shells -> PAOs            752.0
   MOs        -> AO shells       245.9
   PAOs       -> AO shells       248.0

Calculating integrals (3.3 sec, 763.774 MB)
Sorting integrals (1.4 sec, 763.751 MB)
Total time for the integral transformation: 4.8 sec

----------------------------
Local MP2 Energy Calculation
----------------------------
Number of orbital pairs included:   2080
Truncation parameters:
    PAOOverlapThresh    =        1.000e-08
    TCutPNO             =        1.000e-08

Spin component scaling                      .... not used
MP2 energy scaling factor                   .... 0.270

Formation of semicanonical amplitudes.
 10% done.
 20% done.
 30% done.
 40% done.
 50% done.
 60% done.
 70% done.
 80% done.
 90% done.
100% done.

Finished the LMP2 guess in 73.9 sec.

Average number of PAOs per pair        580.1
Average number of nrPAOs per pair      554.9
Average number of PNOs per pair         38.4
Average number of AUX  per pair        1152.4

Semicanonical MP2 energy:                   -1.445206749900 Eh
Semicanonical MP2 energy in PNO basis:      -1.444924783836 Eh

Initial amplitudes guess done. Entering DLPNO-MP2 iteration loop:
   Max. no of iterations          ...  100
   Energy convergence tolerance   ...    1.0e-09 Eh
   Residual convergence tolerance ...    5.0e-09
   Fock matrix cutoff             ...    1.0e-05 Eh
   Max # vectors in DIIS          ...  7
   Start iteration of DIIS        ...  0
   Levelshift                     ...  2.000e-01 Eh
   Damping before turning on DIIS ...  5.000e-01
   Damping after turning on DIIS  ...  0.000e+00

                           *** Turning on DIIS ***
Iter=   0:  ECORR= -1.496550780452  DE=   5.2e-02 RMAX=   9.1e-03
Iter=   1:  ECORR= -1.522161069454  DE=   2.6e-02 RMAX=   5.4e-03
Iter=   2:  ECORR= -1.528665685706  DE=   6.5e-03 RMAX=   1.8e-03
Iter=   3:  ECORR= -1.529962771383  DE=   1.3e-03 RMAX=   8.0e-04
Iter=   4:  ECORR= -1.530104236516  DE=   1.4e-04 RMAX=   2.0e-04
Iter=   5:  ECORR= -1.530103690562  DE=   5.5e-07 RMAX=   7.0e-05
Iter=   6:  ECORR= -1.530100115786  DE=   3.6e-06 RMAX=   1.6e-05
Iter=   7:  ECORR= -1.530099579842  DE=   5.4e-07 RMAX=   4.4e-06
Iter=   8:  ECORR= -1.530099562077  DE=   1.8e-08 RMAX=   1.0e-06
Iter=   9:  ECORR= -1.530099545380  DE=   1.7e-08 RMAX=   2.8e-07
Iter=  10:  ECORR= -1.530099566312  DE=   2.1e-08 RMAX=   5.7e-08
Iter=  11:  ECORR= -1.530099564478  DE=   1.8e-09 RMAX=   1.5e-08
Iter=  12:  ECORR= -1.530099565859  DE=   1.4e-09 RMAX=   5.6e-09
Iter=  13:  ECORR= -1.530099565992  DE=   1.3e-10 RMAX=   1.6e-09 => CONVERGED

Finished the DLPNO-MP2 iterations in 59.0 sec.

LMP2 correlation energy (all non-screened pairs)      ...     -1.530099565992 Eh
Semicanonical PNO correction to energy                ...     -0.000281966063 Eh
Sum of pair energies estimated for screened out pairs ...      0.000000000000 Eh
                                                         -----------------------
Total:                                                ...     -1.530381532055 Eh

------------------------------------------------------
 DLPNO-MP2 CORRELATION ENERGY:      -1.530381532055 Eh
------------------------------------------------------

TIMINGS FOR DLPNO-MP2:
Localization                             ...        5.068 sec
Differential overlap integrals           ...        1.648 sec
Prescreening                             ...        0.624 sec
Map setup                                ...        0.057 sec
(ia|v) trafo                             ...        4.828 sec
Semicanonical amplitudes                 ...       56.567 sec
PNO construction                         ...       10.863 sec
DLPNO-MP2 iterations                     ...       58.969 sec
                                             ----------------
Total time                                        146.471 sec


---------------------------------------
MP2 TOTAL ENERGY:    -9159.280364659 Eh
---------------------------------------

Maximum memory used throughout the entire MP2-calculation: 903.0 MB

-------------------------   --------------------
FINAL SINGLE POINT ENERGY     -9159.280364658685
-------------------------   --------------------


                            ***************************************
                            *     ORCA property calculations      *
                            ***************************************


  WARNING: The energy has been calculated at the MP2 level but the densities
           used in the property calculations are still SCF densities
           MP2 response densities have not been calculated 
           use %mp2 Density relaxed end
           or  %mp2 Density unrelaxed end

                                    ---------------------
                                    Active property flags
                                    ---------------------
   (+) Dipole Moment


------------------------------------------------------------------------------
                       ORCA ELECTRIC PROPERTIES CALCULATION
------------------------------------------------------------------------------

Dipole Moment Calculation                       ... on
Quadrupole Moment Calculation                   ... off
Polarizability Calculation                      ... off
GBWName                                         ... orca.gbw
Electron density                                ... orca.scfp
The origin for moment calculation is the CENTER OF MASS  = ( 0.000007, -0.000002 -2.564367)

-------------
DIPOLE MOMENT
-------------
                                X             Y             Z
Electronic contribution:      0.00026       0.00001      14.70279
Nuclear contribution   :     -0.01884       0.00013   -1833.20822
                        -----------------------------------------
Total Dipole Moment    :     -0.01858       0.00014   -1818.50543
                        -----------------------------------------
Magnitude (a.u.)       :   1818.50543
Magnitude (Debye)      :   4622.27347



--------------------
Rotational spectrum 
--------------------
 
Rotational constants in cm-1:     0.012601     0.005293     0.004267 
Rotational constants in MHz :   377.776986   158.690950   127.935621 

 Dipole components along the rotational axes: 
x,y,z [a.u.] :    -0.018157    -0.000674 -1818.505430 
x,y,z [Debye]:    -0.046151    -0.001713 -4622.273466 

 

Timings for individual modules:

Sum of individual times         ...      485.579 sec (=   8.093 min)
GTO integral calculation        ...      159.144 sec (=   2.652 min)  32.8 %
SCF iterations                  ...      178.732 sec (=   2.979 min)  36.8 %
MP2 module                      ...      147.703 sec (=   2.462 min)  30.4 %
                             ****ORCA TERMINATED NORMALLY****
TOTAL RUN TIME: 0 days 0 hours 8 minutes 7 seconds 101 msec
