
                                 *****************
                                 * O   R   C   A *
                                 *****************

                                            #,                                       
                                            ###                                      
                                            ####                                     
                                            #####                                    
                                            ######                                   
                                           ########,                                 
                                     ,,################,,,,,                         
                               ,,#################################,,                 
                          ,,##########################################,,             
                       ,#########################################, ''#####,          
                    ,#############################################,,   '####,        
                  ,##################################################,,,,####,       
                ,###########''''           ''''###############################       
              ,#####''   ,,,,##########,,,,          '''####'''          '####       
            ,##' ,,,,###########################,,,                        '##       
           ' ,,###''''                  '''############,,,                           
         ,,##''                                '''############,,,,        ,,,,,,###''
      ,#''                                            '''#######################'''  
     '                                                          ''''####''''         
             ,#######,   #######,   ,#######,      ##                                
            ,#'     '#,  ##    ##  ,#'     '#,    #''#        ######   ,####,        
            ##       ##  ##   ,#'  ##            #'  '#       #        #'  '#        
            ##       ##  #######   ##           ,######,      #####,   #    #        
            '#,     ,#'  ##    ##  '#,     ,#' ,#      #,         ##   #,  ,#        
             '#######'   ##     ##  '#######'  #'      '#     #####' # '####'        



                  #######################################################
                  #                        -***-                        #
                  #          Department of theory and spectroscopy      #
                  #    Directorship and core code : Frank Neese         #
                  #        Max Planck Institute fuer Kohlenforschung    #
                  #                Kaiser Wilhelm Platz 1               #
                  #                 D-45470 Muelheim/Ruhr               #
                  #                      Germany                        #
                  #                                                     #
                  #                  All rights reserved                #
                  #                        -***-                        #
                  #######################################################


                         Program Version 5.0.1 -  RELEASE  -


 With contributions from (in alphabetic order):
   Daniel Aravena         : Magnetic Suceptibility
   Michael Atanasov       : Ab Initio Ligand Field Theory (pilot matlab implementation)
   Alexander A. Auer      : GIAO ZORA, VPT2 properties, NMR spectrum
   Ute Becker             : Parallelization
   Giovanni Bistoni       : ED, misc. LED, open-shell LED, HFLD
   Martin Brehm           : Molecular dynamics
   Dmytro Bykov           : SCF Hessian
   Vijay G. Chilkuri      : MRCI spin determinant printing, contributions to CSF-ICE
   Dipayan Datta          : RHF DLPNO-CCSD density
   Achintya Kumar Dutta   : EOM-CC, STEOM-CC
   Dmitry Ganyushin       : Spin-Orbit,Spin-Spin,Magnetic field MRCI
   Miquel Garcia          : C-PCM and meta-GGA Hessian, CC/C-PCM, Gaussian charge scheme
   Yang Guo               : DLPNO-NEVPT2, F12-NEVPT2, CIM, IAO-localization
   Andreas Hansen         : Spin unrestricted coupled pair/coupled cluster methods
   Benjamin Helmich-Paris : MC-RPA, TRAH-SCF, COSX integrals
   Lee Huntington         : MR-EOM, pCC
   Robert Izsak           : Overlap fitted RIJCOSX, COSX-SCS-MP3, EOM
   Marcus Kettner         : VPT2
   Christian Kollmar      : KDIIS, OOCD, Brueckner-CCSD(T), CCSD density, CASPT2, CASPT2-K
   Simone Kossmann        : Meta GGA functionals, TD-DFT gradient, OOMP2, MP2 Hessian
   Martin Krupicka        : Initial AUTO-CI
   Lucas Lang             : DCDCAS
   Marvin Lechner         : AUTO-CI (C++ implementation), FIC-MRCC
   Dagmar Lenk            : GEPOL surface, SMD
   Dimitrios Liakos       : Extrapolation schemes; Compound Job, initial MDCI parallelization
   Dimitrios Manganas     : Further ROCIS development; embedding schemes
   Dimitrios Pantazis     : SARC Basis sets
   Anastasios Papadopoulos: AUTO-CI, single reference methods and gradients
   Taras Petrenko         : DFT Hessian,TD-DFT gradient, ASA, ECA, R-Raman, ABS, FL, XAS/XES, NRVS
   Peter Pinski           : DLPNO-MP2, DLPNO-MP2 Gradient
   Christoph Reimann      : Effective Core Potentials
   Marius Retegan         : Local ZFS, SOC
   Christoph Riplinger    : Optimizer, TS searches, QM/MM, DLPNO-CCSD(T), (RO)-DLPNO pert. Triples
   Tobias Risthaus        : Range-separated hybrids, TD-DFT gradient, RPA, STAB
   Michael Roemelt        : Original ROCIS implementation
   Masaaki Saitow         : Open-shell DLPNO-CCSD energy and density
   Barbara Sandhoefer     : DKH picture change effects
   Avijit Sen             : IP-ROCIS
   Kantharuban Sivalingam : CASSCF convergence, NEVPT2, FIC-MRCI
   Bernardo de Souza      : ESD, SOC TD-DFT
   Georgi Stoychev        : AutoAux, RI-MP2 NMR, DLPNO-MP2 response
   Willem Van den Heuvel  : Paramagnetic NMR
   Boris Wezisla          : Elementary symmetry handling
   Frank Wennmohs         : Technical directorship


 We gratefully acknowledge several colleagues who have allowed us to
 interface, adapt or use parts of their codes:
   Stefan Grimme, W. Hujo, H. Kruse, P. Pracht,  : VdW corrections, initial TS optimization,
                  C. Bannwarth, S. Ehlert          DFT functionals, gCP, sTDA/sTD-DF
   Ed Valeev, F. Pavosevic, A. Kumar             : LibInt (2-el integral package), F12 methods
   Garnet Chan, S. Sharma, J. Yang, R. Olivares  : DMRG
   Ulf Ekstrom                                   : XCFun DFT Library
   Mihaly Kallay                                 : mrcc  (arbitrary order and MRCC methods)
   Jiri Pittner, Ondrej Demel                    : Mk-CCSD
   Frank Weinhold                                : gennbo (NPA and NBO analysis)
   Christopher J. Cramer and Donald G. Truhlar   : smd solvation model
   Lars Goerigk                                  : TD-DFT with DH, B97 family of functionals
   V. Asgeirsson, H. Jonsson                     : NEB implementation
   FAccTs GmbH                                   : IRC, NEB, NEB-TS, DLPNO-Multilevel, CI-OPT
                                                   MM, QMMM, 2- and 3-layer-ONIOM, Crystal-QMMM,
                                                   LR-CPCM, SF, NACMEs, symmetry and pop. for TD-DFT,
                                                   nearIR, NL-DFT gradient (VV10), updates on ESD,
                                                   ML-optimized integration grids
   S Lehtola, MJT Oliveira, MAL Marques          : LibXC Library
   Liviu Ungur et al                             : ANISO software


 Your calculation uses the libint2 library for the computation of 2-el integrals
 For citations please refer to: http://libint.valeyev.net

 Your ORCA version has been built with support for libXC version: 5.1.0
 For citations please refer to: https://tddft.org/programs/libxc/

 This ORCA versions uses:
   CBLAS   interface :  Fast vector & matrix operations
   LAPACKE interface :  Fast linear algebra routines
   SCALAPACK package :  Parallel linear algebra routines
   Shared memory     :  Shared parallel matrices
   BLAS/LAPACK       :  OpenBLAS 0.3.15  USE64BITINT DYNAMIC_ARCH NO_AFFINITY SkylakeX SINGLE_THREADED
        Core in use  :  SkylakeX
   Copyright (c) 2011-2014, The OpenBLAS Project


Setting NCore(Ti) from 10 to 10
Setting NCore(O ) from 2 to 2
SCAN-COORDS
================================================================================

----- Orbital basis set information -----
Your calculation utilizes the basis: def2-SVP
   F. Weigend and R. Ahlrichs, Phys. Chem. Chem. Phys. 7, 3297 (2005).

The basis set includes element-specific modifications.

Your calculation utilizes the basis: aug-cc-pVQZ 
    H, B-Ne : Obtained from the ccRepo (grant-hill.group.shef.ac.uk/ccrepo) Feb. 2017
              R. A. Kendall, T. H. Dunning, Jr., R. J. Harrison, J. Chem. Phys. 96, 6796 (1992)
         He : Obtained from the ccRepo (grant-hill.group.shef.ac.uk/ccrepo) Feb. 2017
              D. E. Woon, T. H. Dunning, Jr., J. Chem. Phys. 100, 2975 (1994)
  Li-Be, Na : Obtained from the ccRepo (grant-hill.group.shef.ac.uk/ccrepo) Feb. 2017
              B. P. Prascher, D. E. Woon, K. A. Peterson, T. H. Dunning, Jr., A. K. Wilson, Theor. Chem. Acc. 128, 69 (2011)
         Mg : Obtained from the Peterson Research Group Website (tyr0.chem.wsu.edu/~kipeters) Feb. 2017
              B. P. Prascher, D. E. Woon, K. A. Peterson, T. H. Dunning, Jr., A. K. Wilson, Theor. Chem. Acc. 128, 69 (2011)
      Al-Ar : Obtained from the ccRepo (grant-hill.group.shef.ac.uk/ccrepo) Feb. 2017
              D. E. Woon, T. H. Dunning, Jr., J. Chem. Phys. 98, 1358 (1993)
      Sc-Zn : Obtained from the ccRepo (grant-hill.group.shef.ac.uk/ccrepo) Feb. 2017
              N. B. Balabanov, K. A. Peterson, J. Chem. Phys. 123, 064107 (2005)
              N. B. Balabanov, K. A. Peterson, J. Chem. Phys. 125, 074110 (2006)
      Ga-Kr : Obtained from the ccRepo (grant-hill.group.shef.ac.uk/ccrepo) Feb. 2017
              A. K. Wilson, D. E. Woon, K. A. Peterson, T. H. Dunning, Jr., J. Chem. Phys. 110, 7667 (1999)

Your calculation utilizes the basis: cc-pwCVQZ 
             H : cc-pVQZ. Obtained from the ccRepo (grant-hill.group.shef.ac.uk/ccrepo) Feb. 2017
                 T. H. Dunning, Jr., J. Chem. Phys. 90, 1007 (1989)
            He : cc-pVQZ. Obtained from the ccRepo (grant-hill.group.shef.ac.uk/ccrepo) Feb. 2017
                 D. E. Woon, T. H. Dunning, Jr., J. Chem. Phys. 100, 2975 (1994)
  Li-Be, Na-Mg : Obtained from the ccRepo (grant-hill.group.shef.ac.uk/ccrepo) Feb. 2017
                 B. P. Prascher, D. E. Woon, K. A. Peterson, T. H. Dunning, Jr., A. K. Wilson, Theor. Chem. Acc. 128, 69 (2011)
          B-Ne : Obtained from the ccRepo (grant-hill.group.shef.ac.uk/ccrepo) Feb. 2017
                 K. A. Peterson, T. H. Dunning, Jr., J. Chem. Phys. 117, 10548 (2002)
         Al-Ar : Obtained from the EMSL Basis Set Exchange (bse.pnl.gov) Feb. 2017
                 K. A. Peterson, T. H. Dunning, Jr., J. Chem. Phys. 117, 10548 (2002)
            Ca : Obtained from the Peterson Research Group Website (tyr0.chem.wsu.edu/~kipeters) Feb. 2017
                 J. Koput, K. A. Peterson, J. Phys. Chem. 106, 9595 (2002)
         Sc-Zn : Obtained from the ccRepo (grant-hill.group.shef.ac.uk/ccrepo) Feb. 2017
                 N. B. Balabanov, K. A. Peterson, J. Chem. Phys. 123, 064107 (2005)
                 N. B. Balabanov, K. A. Peterson, J. Chem. Phys. 125, 074110 (2006)
         Ga-Kr : Obtained from the Peterson Research Group Website (tyr0.chem.wsu.edu/~kipeters) Feb. 2017
                 K. A. Peterson, K. E. Yousaf, J. Chem. Phys. 133, 174116 (2010)
                 N. J. DeYonker, K. A. Peterson, A. K. Wilson, J. Phys. Chem. A 111, 11383 (2007)

----- AuxJ basis set information -----
Your calculation utilizes the auxiliary basis: def2/J
   F. Weigend, Phys. Chem. Chem. Phys. 8, 1057 (2006).

----- AuxC basis set information -----
Your calculation utilizes the AutoAux generation procedure.
  G. L. Stoychev, A. A. Auer, F. Neese, J. Chem. Theory Comput. 13, 554 (2017)

================================================================================
                                        WARNINGS
                       Please study these warnings very carefully!
================================================================================

WARNING: The globally-selected AuxJ basis set is optimized for use with ECPs
         Make sure a suitable alternative is explicitly given all heavy elements (Z>36)

WARNING: No MP2 level density has been requested!
         To caclulate MP2 level properties use
         %mp2 Density relaxed end
         or
         %mp2 Density unrelaxed end

WARNING: Post HF methods need fully converged wavefunctions
  ===> : Setting SCFConvForced true
         You can overwrite this default with %scf ConvForced false 


INFO   : the flag for use of the SHARK integral package has been found!

================================================================================
                                       INPUT FILE
================================================================================
NAME = orca.inp
|  1> ! VeryTightSCF DLPNO-MP2 NormalPNO RIJCOSX SlowConv DIIS
|  2> %maxcore 72000
|  3> %pal
|  4> nprocs 16
|  5> end
|  6> %pointcharges "orca.bq"
|  7> %method
|  8> Method hf
|  9> RI on
| 10> RunTyp Energy
| 11> NewNCore Ti 10 end
| 12> NewNCore O 2 end
| 13> end
| 14> %basis
| 15> NewGTO O
| 16> "aug-cc-pVQZ"
| 17> end
| 18> NewGTO Ti
| 19> "cc-pwCVQZ"
| 20> end
| 21> Aux "def2/J"
| 22> AuxC "AutoAux"
| 23> end
| 24> %scf
| 25> HFTyp rhf
| 26> Guess Hueckel
| 27> AutoStart True
| 28> SCFMode Direct
| 29> MaxIter 1000
| 30> sthresh 1e-6
| 31> AutoTRAHIter 100
| 32> end
| 33> %coords
| 34> CTyp xyz
| 35> Mult 1
| 36> Units angs
| 37>   Charge -12
| 38>   coords
| 39> O                       0.00000000000    0.00000000000    0.00000000000
| 40> Ti                      0.00000536997    1.48055149700   -1.06892606631
| 41> Ti                      0.00000552101   -1.48055312386   -1.06892138720
| 42> O                       0.00000442396   -0.00000111986   -2.54840301833
| 43> O                      -2.03525914147    1.48054518365   -1.11149385695
| 44> O                       2.03526534753    1.48054527935   -1.11149163807
| 45> O                       2.03526471018   -1.48054700097   -1.11149295951
| 46> O                      -2.03525907462   -1.48054722666   -1.11149503385
| 47> O                      -0.00000037752    2.96109155033   -0.00000271770
| 48> O                      -0.00000037752   -2.96109552160   -0.00000271770
| 49> O                       0.00000449994    2.96109199200   -2.54840438198
| 50> O                       0.00000449994   -2.96109507993   -2.54840438198
| 51> Ti>    4.00000000000    3.25402319191   -0.00000112036   -1.42716202606
| 52> NewECP
| 53> N_core 0
| 54>   lmax f
| 55>   s 2
| 56>    1      0.860000       9.191690  2
| 57>    2      0.172000       0.008301  2
| 58>   p 2
| 59>    1      0.860000      17.997720  2
| 60>    2      0.172000      -0.032600  2
| 61>   d 2
| 62>    1      1.600000      -9.504310  2
| 63>    2      0.320000      -0.151370  2
| 64>   f 1
| 65>    1      1.000000000    0.000000000 2
| 66> end
| 67> Ti>    4.00000000000   -3.25401610555   -0.00000112036   -1.42716202606
| 68> NewECP
| 69> N_core 0
| 70>   lmax f
| 71>   s 2
| 72>    1      0.860000       9.191690  2
| 73>    2      0.172000       0.008301  2
| 74>   p 2
| 75>    1      0.860000      17.997720  2
| 76>    2      0.172000      -0.032600  2
| 77>   d 2
| 78>    1      1.600000      -9.504310  2
| 79>    2      0.320000      -0.151370  2
| 80>   f 1
| 81>    1      1.000000000    0.000000000 2
| 82> end
| 83> Ti>    4.00000000000   -0.00005220374   -0.00000071014   -4.41288396045
| 84> NewECP
| 85> N_core 0
| 86>   lmax f
| 87>   s 2
| 88>    1      0.860000       9.191690  2
| 89>    2      0.172000       0.008301  2
| 90>   p 2
| 91>    1      0.860000      17.997720  2
| 92>    2      0.172000      -0.032600  2
| 93>   d 2
| 94>    1      1.600000      -9.504310  2
| 95>    2      0.320000      -0.151370  2
| 96>   f 1
| 97>    1      1.000000000    0.000000000 2
| 98> end
| 99> Ti>    4.00000000000    0.00000552101    4.44163394806   -1.06892138720
|100> NewECP
|101> N_core 0
|102>   lmax f
|103>   s 2
|104>    1      0.860000       9.191690  2
|105>    2      0.172000       0.008301  2
|106>   p 2
|107>    1      0.860000      17.997720  2
|108>    2      0.172000      -0.032600  2
|109>   d 2
|110>    1      1.600000      -9.504310  2
|111>    2      0.320000      -0.151370  2
|112>   f 1
|113>    1      1.000000000    0.000000000 2
|114> end
|115> Ti>    4.00000000000    0.00000536997   -4.44163557493   -1.06892606631
|116> NewECP
|117> N_core 0
|118>   lmax f
|119>   s 2
|120>    1      0.860000       9.191690  2
|121>    2      0.172000       0.008301  2
|122>   p 2
|123>    1      0.860000      17.997720  2
|124>    2      0.172000      -0.032600  2
|125>   d 2
|126>    1      1.600000      -9.504310  2
|127>    2      0.320000      -0.151370  2
|128>   f 1
|129>    1      1.000000000    0.000000000 2
|130> end
|131> Ti>    4.00000000000   -3.25401668289    2.96109302555   -1.42716235830
|132> NewECP
|133> N_core 0
|134>   lmax f
|135>   s 2
|136>    1      0.860000       9.191690  2
|137>    2      0.172000       0.008301  2
|138>   p 2
|139>    1      0.860000      17.997720  2
|140>    2      0.172000      -0.032600  2
|141>   d 2
|142>    1      1.600000      -9.504310  2
|143>    2      0.320000      -0.151370  2
|144>   f 1
|145>    1      1.000000000    0.000000000 2
|146> end
|147> Ti>    4.00000000000    3.25402261457    2.96109302555   -1.42716235830
|148> NewECP
|149> N_core 0
|150>   lmax f
|151>   s 2
|152>    1      0.860000       9.191690  2
|153>    2      0.172000       0.008301  2
|154>   p 2
|155>    1      0.860000      17.997720  2
|156>    2      0.172000      -0.032600  2
|157>   d 2
|158>    1      1.600000      -9.504310  2
|159>    2      0.320000      -0.151370  2
|160>   f 1
|161>    1      1.000000000    0.000000000 2
|162> end
|163> Ti>    4.00000000000    3.25402261457   -2.96109404638   -1.42716235830
|164> NewECP
|165> N_core 0
|166>   lmax f
|167>   s 2
|168>    1      0.860000       9.191690  2
|169>    2      0.172000       0.008301  2
|170>   p 2
|171>    1      0.860000      17.997720  2
|172>    2      0.172000      -0.032600  2
|173>   d 2
|174>    1      1.600000      -9.504310  2
|175>    2      0.320000      -0.151370  2
|176>   f 1
|177>    1      1.000000000    0.000000000 2
|178> end
|179> Ti>    4.00000000000   -3.25401668289   -2.96109404638   -1.42716235830
|180> NewECP
|181> N_core 0
|182>   lmax f
|183>   s 2
|184>    1      0.860000       9.191690  2
|185>    2      0.172000       0.008301  2
|186>   p 2
|187>    1      0.860000      17.997720  2
|188>    2      0.172000      -0.032600  2
|189>   d 2
|190>    1      1.600000      -9.504310  2
|191>    2      0.320000      -0.151370  2
|192>   f 1
|193>    1      1.000000000    0.000000000 2
|194> end
|195> Ti>    4.00000000000   -0.00005206359    2.96109301637   -4.41288206312
|196> NewECP
|197> N_core 0
|198>   lmax f
|199>   s 2
|200>    1      0.860000       9.191690  2
|201>    2      0.172000       0.008301  2
|202>   p 2
|203>    1      0.860000      17.997720  2
|204>    2      0.172000      -0.032600  2
|205>   d 2
|206>    1      1.600000      -9.504310  2
|207>    2      0.320000      -0.151370  2
|208>   f 1
|209>    1      1.000000000    0.000000000 2
|210> end
|211> Ti>    4.00000000000   -0.00005206359   -2.96109405556   -4.41288206312
|212> NewECP
|213> N_core 0
|214>   lmax f
|215>   s 2
|216>    1      0.860000       9.191690  2
|217>    2      0.172000       0.008301  2
|218>   p 2
|219>    1      0.860000      17.997720  2
|220>    2      0.172000      -0.032600  2
|221>   d 2
|222>    1      1.600000      -9.504310  2
|223>    2      0.320000      -0.151370  2
|224>   f 1
|225>    1      1.000000000    0.000000000 2
|226> end
|227> Ti>    4.00000000000    3.25395215162    1.48054533538   -4.59991327640
|228> NewECP
|229> N_core 0
|230>   lmax f
|231>   s 2
|232>    1      0.860000       9.191690  2
|233>    2      0.172000       0.008301  2
|234>   p 2
|235>    1      0.860000      17.997720  2
|236>    2      0.172000      -0.032600  2
|237>   d 2
|238>    1      1.600000      -9.504310  2
|239>    2      0.320000      -0.151370  2
|240>   f 1
|241>    1      1.000000000    0.000000000 2
|242> end
|243> Ti>    4.00000000000    3.25395195581   -1.48054722422   -4.59991284715
|244> NewECP
|245> N_core 0
|246>   lmax f
|247>   s 2
|248>    1      0.860000       9.191690  2
|249>    2      0.172000       0.008301  2
|250>   p 2
|251>    1      0.860000      17.997720  2
|252>    2      0.172000      -0.032600  2
|253>   d 2
|254>    1      1.600000      -9.504310  2
|255>    2      0.320000      -0.151370  2
|256>   f 1
|257>    1      1.000000000    0.000000000 2
|258> end
|259> Ti>    4.00000000000   -3.25408714585    1.48054533538   -4.59991327640
|260> NewECP
|261> N_core 0
|262>   lmax f
|263>   s 2
|264>    1      0.860000       9.191690  2
|265>    2      0.172000       0.008301  2
|266>   p 2
|267>    1      0.860000      17.997720  2
|268>    2      0.172000      -0.032600  2
|269>   d 2
|270>    1      1.600000      -9.504310  2
|271>    2      0.320000      -0.151370  2
|272>   f 1
|273>    1      1.000000000    0.000000000 2
|274> end
|275> Ti>    4.00000000000   -3.25408734165   -1.48054722422   -4.59991284715
|276> NewECP
|277> N_core 0
|278>   lmax f
|279>   s 2
|280>    1      0.860000       9.191690  2
|281>    2      0.172000       0.008301  2
|282>   p 2
|283>    1      0.860000      17.997720  2
|284>    2      0.172000      -0.032600  2
|285>   d 2
|286>    1      1.600000      -9.504310  2
|287>    2      0.320000      -0.151370  2
|288>   f 1
|289>    1      1.000000000    0.000000000 2
|290> end
|291> Ti>    4.00000000000   -6.50803392749    1.48055149700   -1.06892606631
|292> NewECP
|293> N_core 0
|294>   lmax f
|295>   s 2
|296>    1      0.860000       9.191690  2
|297>    2      0.172000       0.008301  2
|298>   p 2
|299>    1      0.860000      17.997720  2
|300>    2      0.172000      -0.032600  2
|301>   d 2
|302>    1      1.600000      -9.504310  2
|303>    2      0.320000      -0.151370  2
|304>   f 1
|305>    1      1.000000000    0.000000000 2
|306> end
|307> Ti>    4.00000000000    6.50804466744    1.48055149700   -1.06892606631
|308> NewECP
|309> N_core 0
|310>   lmax f
|311>   s 2
|312>    1      0.860000       9.191690  2
|313>    2      0.172000       0.008301  2
|314>   p 2
|315>    1      0.860000      17.997720  2
|316>    2      0.172000      -0.032600  2
|317>   d 2
|318>    1      1.600000      -9.504310  2
|319>    2      0.320000      -0.151370  2
|320>   f 1
|321>    1      1.000000000    0.000000000 2
|322> end
|323> Ti>    4.00000000000    6.50804481848   -1.48055312386   -1.06892138720
|324> NewECP
|325> N_core 0
|326>   lmax f
|327>   s 2
|328>    1      0.860000       9.191690  2
|329>    2      0.172000       0.008301  2
|330>   p 2
|331>    1      0.860000      17.997720  2
|332>    2      0.172000      -0.032600  2
|333>   d 2
|334>    1      1.600000      -9.504310  2
|335>    2      0.320000      -0.151370  2
|336>   f 1
|337>    1      1.000000000    0.000000000 2
|338> end
|339> Ti>    4.00000000000   -6.50803377645   -1.48055312386   -1.06892138720
|340> NewECP
|341> N_core 0
|342>   lmax f
|343>   s 2
|344>    1      0.860000       9.191690  2
|345>    2      0.172000       0.008301  2
|346>   p 2
|347>    1      0.860000      17.997720  2
|348>    2      0.172000      -0.032600  2
|349>   d 2
|350>    1      1.600000      -9.504310  2
|351>    2      0.320000      -0.151370  2
|352>   f 1
|353>    1      1.000000000    0.000000000 2
|354> end
|355> Ti>    4.00000000000   -3.25401610555    5.92218595157   -1.42716202606
|356> NewECP
|357> N_core 0
|358>   lmax f
|359>   s 2
|360>    1      0.860000       9.191690  2
|361>    2      0.172000       0.008301  2
|362>   p 2
|363>    1      0.860000      17.997720  2
|364>    2      0.172000      -0.032600  2
|365>   d 2
|366>    1      1.600000      -9.504310  2
|367>    2      0.320000      -0.151370  2
|368>   f 1
|369>    1      1.000000000    0.000000000 2
|370> end
|371> Ti>    4.00000000000    3.25402319191    5.92218595157   -1.42716202606
|372> NewECP
|373> N_core 0
|374>   lmax f
|375>   s 2
|376>    1      0.860000       9.191690  2
|377>    2      0.172000       0.008301  2
|378>   p 2
|379>    1      0.860000      17.997720  2
|380>    2      0.172000      -0.032600  2
|381>   d 2
|382>    1      1.600000      -9.504310  2
|383>    2      0.320000      -0.151370  2
|384>   f 1
|385>    1      1.000000000    0.000000000 2
|386> end
|387> Ti>    4.00000000000    3.25402319191   -5.92218819228   -1.42716202606
|388> NewECP
|389> N_core 0
|390>   lmax f
|391>   s 2
|392>    1      0.860000       9.191690  2
|393>    2      0.172000       0.008301  2
|394>   p 2
|395>    1      0.860000      17.997720  2
|396>    2      0.172000      -0.032600  2
|397>   d 2
|398>    1      1.600000      -9.504310  2
|399>    2      0.320000      -0.151370  2
|400>   f 1
|401>    1      1.000000000    0.000000000 2
|402> end
|403> Ti>    4.00000000000   -3.25401610555   -5.92218819228   -1.42716202606
|404> NewECP
|405> N_core 0
|406>   lmax f
|407>   s 2
|408>    1      0.860000       9.191690  2
|409>    2      0.172000       0.008301  2
|410>   p 2
|411>    1      0.860000      17.997720  2
|412>    2      0.172000      -0.032600  2
|413>   d 2
|414>    1      1.600000      -9.504310  2
|415>    2      0.320000      -0.151370  2
|416>   f 1
|417>    1      1.000000000    0.000000000 2
|418> end
|419> Ti>    4.00000000000    3.25395195581    4.44163984770   -4.59991284715
|420> NewECP
|421> N_core 0
|422>   lmax f
|423>   s 2
|424>    1      0.860000       9.191690  2
|425>    2      0.172000       0.008301  2
|426>   p 2
|427>    1      0.860000      17.997720  2
|428>    2      0.172000      -0.032600  2
|429>   d 2
|430>    1      1.600000      -9.504310  2
|431>    2      0.320000      -0.151370  2
|432>   f 1
|433>    1      1.000000000    0.000000000 2
|434> end
|435> Ti>    4.00000000000    3.25395215162   -4.44164173655   -4.59991327640
|436> NewECP
|437> N_core 0
|438>   lmax f
|439>   s 2
|440>    1      0.860000       9.191690  2
|441>    2      0.172000       0.008301  2
|442>   p 2
|443>    1      0.860000      17.997720  2
|444>    2      0.172000      -0.032600  2
|445>   d 2
|446>    1      1.600000      -9.504310  2
|447>    2      0.320000      -0.151370  2
|448>   f 1
|449>    1      1.000000000    0.000000000 2
|450> end
|451> Ti>    4.00000000000   -3.25408734165    4.44163984770   -4.59991284715
|452> NewECP
|453> N_core 0
|454>   lmax f
|455>   s 2
|456>    1      0.860000       9.191690  2
|457>    2      0.172000       0.008301  2
|458>   p 2
|459>    1      0.860000      17.997720  2
|460>    2      0.172000      -0.032600  2
|461>   d 2
|462>    1      1.600000      -9.504310  2
|463>    2      0.320000      -0.151370  2
|464>   f 1
|465>    1      1.000000000    0.000000000 2
|466> end
|467> Ti>    4.00000000000   -3.25408714585   -4.44164173655   -4.59991327640
|468> NewECP
|469> N_core 0
|470>   lmax f
|471>   s 2
|472>    1      0.860000       9.191690  2
|473>    2      0.172000       0.008301  2
|474>   p 2
|475>    1      0.860000      17.997720  2
|476>    2      0.172000      -0.032600  2
|477>   d 2
|478>    1      1.600000      -9.504310  2
|479>    2      0.320000      -0.151370  2
|480>   f 1
|481>    1      1.000000000    0.000000000 2
|482> end
|483> Ti>    4.00000000000   -0.00005220374    5.92218636178   -4.41288396045
|484> NewECP
|485> N_core 0
|486>   lmax f
|487>   s 2
|488>    1      0.860000       9.191690  2
|489>    2      0.172000       0.008301  2
|490>   p 2
|491>    1      0.860000      17.997720  2
|492>    2      0.172000      -0.032600  2
|493>   d 2
|494>    1      1.600000      -9.504310  2
|495>    2      0.320000      -0.151370  2
|496>   f 1
|497>    1      1.000000000    0.000000000 2
|498> end
|499> Ti>    4.00000000000   -0.00005220374   -5.92218778207   -4.41288396045
|500> NewECP
|501> N_core 0
|502>   lmax f
|503>   s 2
|504>    1      0.860000       9.191690  2
|505>    2      0.172000       0.008301  2
|506>   p 2
|507>    1      0.860000      17.997720  2
|508>    2      0.172000      -0.032600  2
|509>   d 2
|510>    1      1.600000      -9.504310  2
|511>    2      0.320000      -0.151370  2
|512>   f 1
|513>    1      1.000000000    0.000000000 2
|514> end
|515> Ti>    4.00000000000    0.00000536997    7.40273856892   -1.06892606631
|516> NewECP
|517> N_core 0
|518>   lmax f
|519>   s 2
|520>    1      0.860000       9.191690  2
|521>    2      0.172000       0.008301  2
|522>   p 2
|523>    1      0.860000      17.997720  2
|524>    2      0.172000      -0.032600  2
|525>   d 2
|526>    1      1.600000      -9.504310  2
|527>    2      0.320000      -0.151370  2
|528>   f 1
|529>    1      1.000000000    0.000000000 2
|530> end
|531> Ti>    4.00000000000    0.00000552101   -7.40274019579   -1.06892138720
|532> NewECP
|533> N_core 0
|534>   lmax f
|535>   s 2
|536>    1      0.860000       9.191690  2
|537>    2      0.172000       0.008301  2
|538>   p 2
|539>    1      0.860000      17.997720  2
|540>    2      0.172000      -0.032600  2
|541>   d 2
|542>    1      1.600000      -9.504310  2
|543>    2      0.320000      -0.151370  2
|544>   f 1
|545>    1      1.000000000    0.000000000 2
|546> end
|547> Ti>    4.00000000000    6.50798709372   -0.00000071014   -4.41288396045
|548> NewECP
|549> N_core 0
|550>   lmax f
|551>   s 2
|552>    1      0.860000       9.191690  2
|553>    2      0.172000       0.008301  2
|554>   p 2
|555>    1      0.860000      17.997720  2
|556>    2      0.172000      -0.032600  2
|557>   d 2
|558>    1      1.600000      -9.504310  2
|559>    2      0.320000      -0.151370  2
|560>   f 1
|561>    1      1.000000000    0.000000000 2
|562> end
|563> Ti>    4.00000000000   -6.50809150121   -0.00000071014   -4.41288396045
|564> NewECP
|565> N_core 0
|566>   lmax f
|567>   s 2
|568>    1      0.860000       9.191690  2
|569>    2      0.172000       0.008301  2
|570>   p 2
|571>    1      0.860000      17.997720  2
|572>    2      0.172000      -0.032600  2
|573>   d 2
|574>    1      1.600000      -9.504310  2
|575>    2      0.320000      -0.151370  2
|576>   f 1
|577>    1      1.000000000    0.000000000 2
|578> end
|579> Ti>    4.00000000000   -0.00000306899    1.48054576566   -7.78540932970
|580> NewECP
|581> N_core 0
|582>   lmax f
|583>   s 2
|584>    1      0.860000       9.191690  2
|585>    2      0.172000       0.008301  2
|586>   p 2
|587>    1      0.860000      17.997720  2
|588>    2      0.172000      -0.032600  2
|589>   d 2
|590>    1      1.600000      -9.504310  2
|591>    2      0.320000      -0.151370  2
|592>   f 1
|593>    1      1.000000000    0.000000000 2
|594> end
|595> Ti>    4.00000000000   -0.00000306899   -1.48054777030   -7.78540932970
|596> NewECP
|597> N_core 0
|598>   lmax f
|599>   s 2
|600>    1      0.860000       9.191690  2
|601>    2      0.172000       0.008301  2
|602>   p 2
|603>    1      0.860000      17.997720  2
|604>    2      0.172000      -0.032600  2
|605>   d 2
|606>    1      1.600000      -9.504310  2
|607>    2      0.320000      -0.151370  2
|608>   f 1
|609>    1      1.000000000    0.000000000 2
|610> end
|611> Ti>    4.00000000000   -6.50803377645    4.44163394806   -1.06892138720
|612> NewECP
|613> N_core 0
|614>   lmax f
|615>   s 2
|616>    1      0.860000       9.191690  2
|617>    2      0.172000       0.008301  2
|618>   p 2
|619>    1      0.860000      17.997720  2
|620>    2      0.172000      -0.032600  2
|621>   d 2
|622>    1      1.600000      -9.504310  2
|623>    2      0.320000      -0.151370  2
|624>   f 1
|625>    1      1.000000000    0.000000000 2
|626> end
|627> Ti>    4.00000000000    6.50804481848    4.44163394806   -1.06892138720
|628> NewECP
|629> N_core 0
|630>   lmax f
|631>   s 2
|632>    1      0.860000       9.191690  2
|633>    2      0.172000       0.008301  2
|634>   p 2
|635>    1      0.860000      17.997720  2
|636>    2      0.172000      -0.032600  2
|637>   d 2
|638>    1      1.600000      -9.504310  2
|639>    2      0.320000      -0.151370  2
|640>   f 1
|641>    1      1.000000000    0.000000000 2
|642> end
|643> Ti>    4.00000000000    6.50804466744   -4.44163557493   -1.06892606631
|644> NewECP
|645> N_core 0
|646>   lmax f
|647>   s 2
|648>    1      0.860000       9.191690  2
|649>    2      0.172000       0.008301  2
|650>   p 2
|651>    1      0.860000      17.997720  2
|652>    2      0.172000      -0.032600  2
|653>   d 2
|654>    1      1.600000      -9.504310  2
|655>    2      0.320000      -0.151370  2
|656>   f 1
|657>    1      1.000000000    0.000000000 2
|658> end
|659> Ti>    4.00000000000   -6.50803392749   -4.44163557493   -1.06892606631
|660> NewECP
|661> N_core 0
|662>   lmax f
|663>   s 2
|664>    1      0.860000       9.191690  2
|665>    2      0.172000       0.008301  2
|666>   p 2
|667>    1      0.860000      17.997720  2
|668>    2      0.172000      -0.032600  2
|669>   d 2
|670>    1      1.600000      -9.504310  2
|671>    2      0.320000      -0.151370  2
|672>   f 1
|673>    1      1.000000000    0.000000000 2
|674> end
|675> Ti>    4.00000000000    6.50798723387    2.96109301637   -4.41288206312
|676> NewECP
|677> N_core 0
|678>   lmax f
|679>   s 2
|680>    1      0.860000       9.191690  2
|681>    2      0.172000       0.008301  2
|682>   p 2
|683>    1      0.860000      17.997720  2
|684>    2      0.172000      -0.032600  2
|685>   d 2
|686>    1      1.600000      -9.504310  2
|687>    2      0.320000      -0.151370  2
|688>   f 1
|689>    1      1.000000000    0.000000000 2
|690> end
|691> Ti>    4.00000000000    6.50798723387   -2.96109405556   -4.41288206312
|692> NewECP
|693> N_core 0
|694>   lmax f
|695>   s 2
|696>    1      0.860000       9.191690  2
|697>    2      0.172000       0.008301  2
|698>   p 2
|699>    1      0.860000      17.997720  2
|700>    2      0.172000      -0.032600  2
|701>   d 2
|702>    1      1.600000      -9.504310  2
|703>    2      0.320000      -0.151370  2
|704>   f 1
|705>    1      1.000000000    0.000000000 2
|706> end
|707> Ti>    4.00000000000   -6.50809136106    2.96109301637   -4.41288206312
|708> NewECP
|709> N_core 0
|710>   lmax f
|711>   s 2
|712>    1      0.860000       9.191690  2
|713>    2      0.172000       0.008301  2
|714>   p 2
|715>    1      0.860000      17.997720  2
|716>    2      0.172000      -0.032600  2
|717>   d 2
|718>    1      1.600000      -9.504310  2
|719>    2      0.320000      -0.151370  2
|720>   f 1
|721>    1      1.000000000    0.000000000 2
|722> end
|723> Ti>    4.00000000000   -6.50809136106   -2.96109405556   -4.41288206312
|724> NewECP
|725> N_core 0
|726>   lmax f
|727>   s 2
|728>    1      0.860000       9.191690  2
|729>    2      0.172000       0.008301  2
|730>   p 2
|731>    1      0.860000      17.997720  2
|732>    2      0.172000      -0.032600  2
|733>   d 2
|734>    1      1.600000      -9.504310  2
|735>    2      0.320000      -0.151370  2
|736>   f 1
|737>    1      1.000000000    0.000000000 2
|738> end
|739> Ti>    4.00000000000    3.25401657974   -0.00000100232   -7.78540932970
|740> NewECP
|741> N_core 0
|742>   lmax f
|743>   s 2
|744>    1      0.860000       9.191690  2
|745>    2      0.172000       0.008301  2
|746>   p 2
|747>    1      0.860000      17.997720  2
|748>    2      0.172000      -0.032600  2
|749>   d 2
|750>    1      1.600000      -9.504310  2
|751>    2      0.320000      -0.151370  2
|752>   f 1
|753>    1      1.000000000    0.000000000 2
|754> end
|755> Ti>    4.00000000000   -3.25402271772   -0.00000100232   -7.78540932970
|756> NewECP
|757> N_core 0
|758>   lmax f
|759>   s 2
|760>    1      0.860000       9.191690  2
|761>    2      0.172000       0.008301  2
|762>   p 2
|763>    1      0.860000      17.997720  2
|764>    2      0.172000      -0.032600  2
|765>   d 2
|766>    1      1.600000      -9.504310  2
|767>    2      0.320000      -0.151370  2
|768>   f 1
|769>    1      1.000000000    0.000000000 2
|770> end
|771> Ti>    4.00000000000   -3.25402271772    2.96109253364   -7.78540932970
|772> NewECP
|773> N_core 0
|774>   lmax f
|775>   s 2
|776>    1      0.860000       9.191690  2
|777>    2      0.172000       0.008301  2
|778>   p 2
|779>    1      0.860000      17.997720  2
|780>    2      0.172000      -0.032600  2
|781>   d 2
|782>    1      1.600000      -9.504310  2
|783>    2      0.320000      -0.151370  2
|784>   f 1
|785>    1      1.000000000    0.000000000 2
|786> end
|787> Ti>    4.00000000000    3.25401657974    2.96109253364   -7.78540932970
|788> NewECP
|789> N_core 0
|790>   lmax f
|791>   s 2
|792>    1      0.860000       9.191690  2
|793>    2      0.172000       0.008301  2
|794>   p 2
|795>    1      0.860000      17.997720  2
|796>    2      0.172000      -0.032600  2
|797>   d 2
|798>    1      1.600000      -9.504310  2
|799>    2      0.320000      -0.151370  2
|800>   f 1
|801>    1      1.000000000    0.000000000 2
|802> end
|803> Ti>    4.00000000000    3.25401657974   -2.96109453828   -7.78540932970
|804> NewECP
|805> N_core 0
|806>   lmax f
|807>   s 2
|808>    1      0.860000       9.191690  2
|809>    2      0.172000       0.008301  2
|810>   p 2
|811>    1      0.860000      17.997720  2
|812>    2      0.172000      -0.032600  2
|813>   d 2
|814>    1      1.600000      -9.504310  2
|815>    2      0.320000      -0.151370  2
|816>   f 1
|817>    1      1.000000000    0.000000000 2
|818> end
|819> Ti>    4.00000000000   -3.25402271772   -2.96109453828   -7.78540932970
|820> NewECP
|821> N_core 0
|822>   lmax f
|823>   s 2
|824>    1      0.860000       9.191690  2
|825>    2      0.172000       0.008301  2
|826>   p 2
|827>    1      0.860000      17.997720  2
|828>    2      0.172000      -0.032600  2
|829>   d 2
|830>    1      1.600000      -9.504310  2
|831>    2      0.320000      -0.151370  2
|832>   f 1
|833>    1      1.000000000    0.000000000 2
|834> end
|835> Ti>    4.00000000000   -0.00000306899    4.44163930162   -7.78540932970
|836> NewECP
|837> N_core 0
|838>   lmax f
|839>   s 2
|840>    1      0.860000       9.191690  2
|841>    2      0.172000       0.008301  2
|842>   p 2
|843>    1      0.860000      17.997720  2
|844>    2      0.172000      -0.032600  2
|845>   d 2
|846>    1      1.600000      -9.504310  2
|847>    2      0.320000      -0.151370  2
|848>   f 1
|849>    1      1.000000000    0.000000000 2
|850> end
|851> Ti>    4.00000000000   -0.00000306899   -4.44164130627   -7.78540932970
|852> NewECP
|853> N_core 0
|854>   lmax f
|855>   s 2
|856>    1      0.860000       9.191690  2
|857>    2      0.172000       0.008301  2
|858>   p 2
|859>    1      0.860000      17.997720  2
|860>    2      0.172000      -0.032600  2
|861>   d 2
|862>    1      1.600000      -9.504310  2
|863>    2      0.320000      -0.151370  2
|864>   f 1
|865>    1      1.000000000    0.000000000 2
|866> end
|867> Ti>    4.00000000000   -3.25408714585    7.40273240730   -4.59991327640
|868> NewECP
|869> N_core 0
|870>   lmax f
|871>   s 2
|872>    1      0.860000       9.191690  2
|873>    2      0.172000       0.008301  2
|874>   p 2
|875>    1      0.860000      17.997720  2
|876>    2      0.172000      -0.032600  2
|877>   d 2
|878>    1      1.600000      -9.504310  2
|879>    2      0.320000      -0.151370  2
|880>   f 1
|881>    1      1.000000000    0.000000000 2
|882> end
|883> Ti>    4.00000000000    3.25395215162    7.40273240730   -4.59991327640
|884> NewECP
|885> N_core 0
|886>   lmax f
|887>   s 2
|888>    1      0.860000       9.191690  2
|889>    2      0.172000       0.008301  2
|890>   p 2
|891>    1      0.860000      17.997720  2
|892>    2      0.172000      -0.032600  2
|893>   d 2
|894>    1      1.600000      -9.504310  2
|895>    2      0.320000      -0.151370  2
|896>   f 1
|897>    1      1.000000000    0.000000000 2
|898> end
|899> Ti>    4.00000000000    3.25395195581   -7.40273429615   -4.59991284715
|900> NewECP
|901> N_core 0
|902>   lmax f
|903>   s 2
|904>    1      0.860000       9.191690  2
|905>    2      0.172000       0.008301  2
|906>   p 2
|907>    1      0.860000      17.997720  2
|908>    2      0.172000      -0.032600  2
|909>   d 2
|910>    1      1.600000      -9.504310  2
|911>    2      0.320000      -0.151370  2
|912>   f 1
|913>    1      1.000000000    0.000000000 2
|914> end
|915> Ti>    4.00000000000   -3.25408734165   -7.40273429615   -4.59991284715
|916> NewECP
|917> N_core 0
|918>   lmax f
|919>   s 2
|920>    1      0.860000       9.191690  2
|921>    2      0.172000       0.008301  2
|922>   p 2
|923>    1      0.860000      17.997720  2
|924>    2      0.172000      -0.032600  2
|925>   d 2
|926>    1      1.600000      -9.504310  2
|927>    2      0.320000      -0.151370  2
|928>   f 1
|929>    1      1.000000000    0.000000000 2
|930> end
|931> Ti>    4.00000000000   -3.25401668289    8.88328009748   -1.42716235830
|932> NewECP
|933> N_core 0
|934>   lmax f
|935>   s 2
|936>    1      0.860000       9.191690  2
|937>    2      0.172000       0.008301  2
|938>   p 2
|939>    1      0.860000      17.997720  2
|940>    2      0.172000      -0.032600  2
|941>   d 2
|942>    1      1.600000      -9.504310  2
|943>    2      0.320000      -0.151370  2
|944>   f 1
|945>    1      1.000000000    0.000000000 2
|946> end
|947> Ti>    4.00000000000    3.25402261457    8.88328009748   -1.42716235830
|948> NewECP
|949> N_core 0
|950>   lmax f
|951>   s 2
|952>    1      0.860000       9.191690  2
|953>    2      0.172000       0.008301  2
|954>   p 2
|955>    1      0.860000      17.997720  2
|956>    2      0.172000      -0.032600  2
|957>   d 2
|958>    1      1.600000      -9.504310  2
|959>    2      0.320000      -0.151370  2
|960>   f 1
|961>    1      1.000000000    0.000000000 2
|962> end
|963> Ti>    4.00000000000    3.25402261457   -8.88328111830   -1.42716235830
|964> NewECP
|965> N_core 0
|966>   lmax f
|967>   s 2
|968>    1      0.860000       9.191690  2
|969>    2      0.172000       0.008301  2
|970>   p 2
|971>    1      0.860000      17.997720  2
|972>    2      0.172000      -0.032600  2
|973>   d 2
|974>    1      1.600000      -9.504310  2
|975>    2      0.320000      -0.151370  2
|976>   f 1
|977>    1      1.000000000    0.000000000 2
|978> end
|979> Ti>    4.00000000000   -3.25401668289   -8.88328111830   -1.42716235830
|980> NewECP
|981> N_core 0
|982>   lmax f
|983>   s 2
|984>    1      0.860000       9.191690  2
|985>    2      0.172000       0.008301  2
|986>   p 2
|987>    1      0.860000      17.997720  2
|988>    2      0.172000      -0.032600  2
|989>   d 2
|990>    1      1.600000      -9.504310  2
|991>    2      0.320000      -0.151370  2
|992>   f 1
|993>    1      1.000000000    0.000000000 2
|994> end
|995> Ti>    4.00000000000   -0.00005206359    8.88328008829   -4.41288206312
|996> NewECP
|997> N_core 0
|998>   lmax f
|999>   s 2
|1000>    1      0.860000       9.191690  2
|1001>    2      0.172000       0.008301  2
|1002>   p 2
|1003>    1      0.860000      17.997720  2
|1004>    2      0.172000      -0.032600  2
|1005>   d 2
|1006>    1      1.600000      -9.504310  2
|1007>    2      0.320000      -0.151370  2
|1008>   f 1
|1009>    1      1.000000000    0.000000000 2
|1010> end
|1011> Ti>    4.00000000000   -0.00005206359   -8.88328112748   -4.41288206312
|1012> NewECP
|1013> N_core 0
|1014>   lmax f
|1015>   s 2
|1016>    1      0.860000       9.191690  2
|1017>    2      0.172000       0.008301  2
|1018>   p 2
|1019>    1      0.860000      17.997720  2
|1020>    2      0.172000      -0.032600  2
|1021>   d 2
|1022>    1      1.600000      -9.504310  2
|1023>    2      0.320000      -0.151370  2
|1024>   f 1
|1025>    1      1.000000000    0.000000000 2
|1026> end
|1027> Ti>    4.00000000000   -3.25402271772    5.92218606960   -7.78540932970
|1028> NewECP
|1029> N_core 0
|1030>   lmax f
|1031>   s 2
|1032>    1      0.860000       9.191690  2
|1033>    2      0.172000       0.008301  2
|1034>   p 2
|1035>    1      0.860000      17.997720  2
|1036>    2      0.172000      -0.032600  2
|1037>   d 2
|1038>    1      1.600000      -9.504310  2
|1039>    2      0.320000      -0.151370  2
|1040>   f 1
|1041>    1      1.000000000    0.000000000 2
|1042> end
|1043> Ti>    4.00000000000    3.25401657974    5.92218606960   -7.78540932970
|1044> NewECP
|1045> N_core 0
|1046>   lmax f
|1047>   s 2
|1048>    1      0.860000       9.191690  2
|1049>    2      0.172000       0.008301  2
|1050>   p 2
|1051>    1      0.860000      17.997720  2
|1052>    2      0.172000      -0.032600  2
|1053>   d 2
|1054>    1      1.600000      -9.504310  2
|1055>    2      0.320000      -0.151370  2
|1056>   f 1
|1057>    1      1.000000000    0.000000000 2
|1058> end
|1059> Ti>    4.00000000000    3.25401657974   -5.92218807425   -7.78540932970
|1060> NewECP
|1061> N_core 0
|1062>   lmax f
|1063>   s 2
|1064>    1      0.860000       9.191690  2
|1065>    2      0.172000       0.008301  2
|1066>   p 2
|1067>    1      0.860000      17.997720  2
|1068>    2      0.172000      -0.032600  2
|1069>   d 2
|1070>    1      1.600000      -9.504310  2
|1071>    2      0.320000      -0.151370  2
|1072>   f 1
|1073>    1      1.000000000    0.000000000 2
|1074> end
|1075> Ti>    4.00000000000   -3.25402271772   -5.92218807425   -7.78540932970
|1076> NewECP
|1077> N_core 0
|1078>   lmax f
|1079>   s 2
|1080>    1      0.860000       9.191690  2
|1081>    2      0.172000       0.008301  2
|1082>   p 2
|1083>    1      0.860000      17.997720  2
|1084>    2      0.172000      -0.032600  2
|1085>   d 2
|1086>    1      1.600000      -9.504310  2
|1087>    2      0.320000      -0.151370  2
|1088>   f 1
|1089>    1      1.000000000    0.000000000 2
|1090> end
|1091> Ti>    4.00000000000   -0.00000306899    7.40273283758   -7.78540932970
|1092> NewECP
|1093> N_core 0
|1094>   lmax f
|1095>   s 2
|1096>    1      0.860000       9.191690  2
|1097>    2      0.172000       0.008301  2
|1098>   p 2
|1099>    1      0.860000      17.997720  2
|1100>    2      0.172000      -0.032600  2
|1101>   d 2
|1102>    1      1.600000      -9.504310  2
|1103>    2      0.320000      -0.151370  2
|1104>   f 1
|1105>    1      1.000000000    0.000000000 2
|1106> end
|1107> Ti>    4.00000000000   -0.00000306899   -7.40273484223   -7.78540932970
|1108> NewECP
|1109> N_core 0
|1110>   lmax f
|1111>   s 2
|1112>    1      0.860000       9.191690  2
|1113>    2      0.172000       0.008301  2
|1114>   p 2
|1115>    1      0.860000      17.997720  2
|1116>    2      0.172000      -0.032600  2
|1117>   d 2
|1118>    1      1.600000      -9.504310  2
|1119>    2      0.320000      -0.151370  2
|1120>   f 1
|1121>    1      1.000000000    0.000000000 2
|1122> end
|1123>   end
|1124> endd                         ****END OF INPUT****
================================================================================

                       ****************************
                       * Single Point Calculation *
                       ****************************

---------------------------------
CARTESIAN COORDINATES (ANGSTROEM)
---------------------------------
  O      0.000000    0.000000    0.000000
  Ti     0.000005    1.480551   -1.068926
  Ti     0.000006   -1.480553   -1.068921
  O      0.000004   -0.000001   -2.548403
  O     -2.035259    1.480545   -1.111494
  O      2.035265    1.480545   -1.111492
  O      2.035265   -1.480547   -1.111493
  O     -2.035259   -1.480547   -1.111495
  O     -0.000000    2.961092   -0.000003
  O     -0.000000   -2.961096   -0.000003
  O      0.000004    2.961092   -2.548404
  O      0.000004   -2.961095   -2.548404
  Ti>    3.254023   -0.000001   -1.427162
  Ti>   -3.254016   -0.000001   -1.427162
  Ti>   -0.000052   -0.000001   -4.412884
  Ti>    0.000006    4.441634   -1.068921
  Ti>    0.000005   -4.441636   -1.068926
  Ti>   -3.254017    2.961093   -1.427162
  Ti>    3.254023    2.961093   -1.427162
  Ti>    3.254023   -2.961094   -1.427162
  Ti>   -3.254017   -2.961094   -1.427162
  Ti>   -0.000052    2.961093   -4.412882
  Ti>   -0.000052   -2.961094   -4.412882
  Ti>    3.253952    1.480545   -4.599913
  Ti>    3.253952   -1.480547   -4.599913
  Ti>   -3.254087    1.480545   -4.599913
  Ti>   -3.254087   -1.480547   -4.599913
  Ti>   -6.508034    1.480551   -1.068926
  Ti>    6.508045    1.480551   -1.068926
  Ti>    6.508045   -1.480553   -1.068921
  Ti>   -6.508034   -1.480553   -1.068921
  Ti>   -3.254016    5.922186   -1.427162
  Ti>    3.254023    5.922186   -1.427162
  Ti>    3.254023   -5.922188   -1.427162
  Ti>   -3.254016   -5.922188   -1.427162
  Ti>    3.253952    4.441640   -4.599913
  Ti>    3.253952   -4.441642   -4.599913
  Ti>   -3.254087    4.441640   -4.599913
  Ti>   -3.254087   -4.441642   -4.599913
  Ti>   -0.000052    5.922186   -4.412884
  Ti>   -0.000052   -5.922188   -4.412884
  Ti>    0.000005    7.402739   -1.068926
  Ti>    0.000006   -7.402740   -1.068921
  Ti>    6.507987   -0.000001   -4.412884
  Ti>   -6.508092   -0.000001   -4.412884
  Ti>   -0.000003    1.480546   -7.785409
  Ti>   -0.000003   -1.480548   -7.785409
  Ti>   -6.508034    4.441634   -1.068921
  Ti>    6.508045    4.441634   -1.068921
  Ti>    6.508045   -4.441636   -1.068926
  Ti>   -6.508034   -4.441636   -1.068926
  Ti>    6.507987    2.961093   -4.412882
  Ti>    6.507987   -2.961094   -4.412882
  Ti>   -6.508091    2.961093   -4.412882
  Ti>   -6.508091   -2.961094   -4.412882
  Ti>    3.254017   -0.000001   -7.785409
  Ti>   -3.254023   -0.000001   -7.785409
  Ti>   -3.254023    2.961093   -7.785409
  Ti>    3.254017    2.961093   -7.785409
  Ti>    3.254017   -2.961095   -7.785409
  Ti>   -3.254023   -2.961095   -7.785409
  Ti>   -0.000003    4.441639   -7.785409
  Ti>   -0.000003   -4.441641   -7.785409
  Ti>   -3.254087    7.402732   -4.599913
  Ti>    3.253952    7.402732   -4.599913
  Ti>    3.253952   -7.402734   -4.599913
  Ti>   -3.254087   -7.402734   -4.599913
  Ti>   -3.254017    8.883280   -1.427162
  Ti>    3.254023    8.883280   -1.427162
  Ti>    3.254023   -8.883281   -1.427162
  Ti>   -3.254017   -8.883281   -1.427162
  Ti>   -0.000052    8.883280   -4.412882
  Ti>   -0.000052   -8.883281   -4.412882
  Ti>   -3.254023    5.922186   -7.785409
  Ti>    3.254017    5.922186   -7.785409
  Ti>    3.254017   -5.922188   -7.785409
  Ti>   -3.254023   -5.922188   -7.785409
  Ti>   -0.000003    7.402733   -7.785409
  Ti>   -0.000003   -7.402735   -7.785409

----------------------------
CARTESIAN COORDINATES (A.U.)
----------------------------
  NO LB      ZA    FRAG     MASS         X           Y           Z
   0 O     8.0000    0    15.999    0.000000    0.000000    0.000000
   1 Ti   22.0000    0    47.900    0.000010    2.797837   -2.019978
   2 Ti   22.0000    0    47.900    0.000010   -2.797840   -2.019969
   3 O     8.0000    0    15.999    0.000008   -0.000002   -4.815784
   4 O     8.0000    0    15.999   -3.846082    2.797825   -2.100419
   5 O     8.0000    0    15.999    3.846094    2.797825   -2.100415
   6 O     8.0000    0    15.999    3.846093   -2.797828   -2.100417
   7 O     8.0000    0    15.999   -3.846082   -2.797829   -2.100421
   8 O     8.0000    0    15.999   -0.000001    5.595652   -0.000005
   9 O     8.0000    0    15.999   -0.000001   -5.595660   -0.000005
  10 O     8.0000    0    15.999    0.000009    5.595653   -4.815786
  11 O     8.0000    0    15.999    0.000009   -5.595659   -4.815786
  12 Ti>   4.0000    0     0.000    6.149213   -0.000002   -2.696945
  13 Ti>   4.0000    0     0.000   -6.149199   -0.000002   -2.696945
  14 Ti>   4.0000    0     0.000   -0.000099   -0.000001   -8.339142
  15 Ti>   4.0000    0     0.000    0.000010    8.393472   -2.019969
  16 Ti>   4.0000    0     0.000    0.000010   -8.393475   -2.019978
  17 Ti>   4.0000    0     0.000   -6.149200    5.595655   -2.696946
  18 Ti>   4.0000    0     0.000    6.149212    5.595655   -2.696946
  19 Ti>   4.0000    0     0.000    6.149212   -5.595657   -2.696946
  20 Ti>   4.0000    0     0.000   -6.149200   -5.595657   -2.696946
  21 Ti>   4.0000    0     0.000   -0.000098    5.595655   -8.339139
  22 Ti>   4.0000    0     0.000   -0.000098   -5.595657   -8.339139
  23 Ti>   4.0000    0     0.000    6.149078    2.797825   -8.692576
  24 Ti>   4.0000    0     0.000    6.149078   -2.797829   -8.692576
  25 Ti>   4.0000    0     0.000   -6.149334    2.797825   -8.692576
  26 Ti>   4.0000    0     0.000   -6.149334   -2.797829   -8.692576
  27 Ti>   4.0000    0     0.000  -12.298402    2.797837   -2.019978
  28 Ti>   4.0000    0     0.000   12.298422    2.797837   -2.019978
  29 Ti>   4.0000    0     0.000   12.298422   -2.797840   -2.019969
  30 Ti>   4.0000    0     0.000  -12.298402   -2.797840   -2.019969
  31 Ti>   4.0000    0     0.000   -6.149199   11.191310   -2.696945
  32 Ti>   4.0000    0     0.000    6.149213   11.191310   -2.696945
  33 Ti>   4.0000    0     0.000    6.149213  -11.191314   -2.696945
  34 Ti>   4.0000    0     0.000   -6.149199  -11.191314   -2.696945
  35 Ti>   4.0000    0     0.000    6.149078    8.393483   -8.692576
  36 Ti>   4.0000    0     0.000    6.149078   -8.393486   -8.692576
  37 Ti>   4.0000    0     0.000   -6.149334    8.393483   -8.692576
  38 Ti>   4.0000    0     0.000   -6.149334   -8.393486   -8.692576
  39 Ti>   4.0000    0     0.000   -0.000099   11.191310   -8.339142
  40 Ti>   4.0000    0     0.000   -0.000099  -11.191313   -8.339142
  41 Ti>   4.0000    0     0.000    0.000010   13.989149   -2.019978
  42 Ti>   4.0000    0     0.000    0.000010  -13.989152   -2.019969
  43 Ti>   4.0000    0     0.000   12.298313   -0.000001   -8.339142
  44 Ti>   4.0000    0     0.000  -12.298511   -0.000001   -8.339142
  45 Ti>   4.0000    0     0.000   -0.000006    2.797826  -14.712291
  46 Ti>   4.0000    0     0.000   -0.000006   -2.797830  -14.712291
  47 Ti>   4.0000    0     0.000  -12.298402    8.393472   -2.019969
  48 Ti>   4.0000    0     0.000   12.298422    8.393472   -2.019969
  49 Ti>   4.0000    0     0.000   12.298422   -8.393475   -2.019978
  50 Ti>   4.0000    0     0.000  -12.298402   -8.393475   -2.019978
  51 Ti>   4.0000    0     0.000   12.298314    5.595655   -8.339139
  52 Ti>   4.0000    0     0.000   12.298314   -5.595657   -8.339139
  53 Ti>   4.0000    0     0.000  -12.298510    5.595655   -8.339139
  54 Ti>   4.0000    0     0.000  -12.298510   -5.595657   -8.339139
  55 Ti>   4.0000    0     0.000    6.149200   -0.000002  -14.712291
  56 Ti>   4.0000    0     0.000   -6.149212   -0.000002  -14.712291
  57 Ti>   4.0000    0     0.000   -6.149212    5.595654  -14.712291
  58 Ti>   4.0000    0     0.000    6.149200    5.595654  -14.712291
  59 Ti>   4.0000    0     0.000    6.149200   -5.595658  -14.712291
  60 Ti>   4.0000    0     0.000   -6.149212   -5.595658  -14.712291
  61 Ti>   4.0000    0     0.000   -0.000006    8.393482  -14.712291
  62 Ti>   4.0000    0     0.000   -0.000006   -8.393486  -14.712291
  63 Ti>   4.0000    0     0.000   -6.149334   13.989137   -8.692576
  64 Ti>   4.0000    0     0.000    6.149078   13.989137   -8.692576
  65 Ti>   4.0000    0     0.000    6.149078  -13.989140   -8.692576
  66 Ti>   4.0000    0     0.000   -6.149334  -13.989140   -8.692576
  67 Ti>   4.0000    0     0.000   -6.149200   16.786967   -2.696946
  68 Ti>   4.0000    0     0.000    6.149212   16.786967   -2.696946
  69 Ti>   4.0000    0     0.000    6.149212  -16.786968   -2.696946
  70 Ti>   4.0000    0     0.000   -6.149200  -16.786968   -2.696946
  71 Ti>   4.0000    0     0.000   -0.000098   16.786967   -8.339139
  72 Ti>   4.0000    0     0.000   -0.000098  -16.786969   -8.339139
  73 Ti>   4.0000    0     0.000   -6.149212   11.191310  -14.712291
  74 Ti>   4.0000    0     0.000    6.149200   11.191310  -14.712291
  75 Ti>   4.0000    0     0.000    6.149200  -11.191314  -14.712291
  76 Ti>   4.0000    0     0.000   -6.149212  -11.191314  -14.712291
  77 Ti>   4.0000    0     0.000   -0.000006   13.989138  -14.712291
  78 Ti>   4.0000    0     0.000   -0.000006  -13.989141  -14.712291
> coreless ECP center with (optional) point charge

--------------------------------
INTERNAL COORDINATES (ANGSTROEM)
--------------------------------
 O      0   0   0     0.000000000000     0.00000000     0.00000000
 Ti     1   0   0     1.826098483252     0.00000000     0.00000000
 Ti     1   2   0     1.826097063306   108.34321415     0.00000000
 O      2   1   3     2.093057118869    80.80764629     0.00000000
 O      2   1   3     2.035709617889    90.70101716    89.02863937
 O      2   1   3     2.035705038603    90.70132129   270.97178739
 O      3   1   2     2.035704375863    90.70142476    89.02807847
 O      3   1   2     2.035709824520    90.70111581   270.97149260
 O      2   1   3     1.826087614204   108.34292419   179.99999251
 O      3   1   2     1.826086776018   108.34323519   180.00001748
 O      2   1   3     2.093049508223   170.84902752     0.00000000
 O      3   1   2     2.093053849171   170.84881627     0.00000000
 Ti>    7   3   1     1.943459621643   129.07739454   313.09097521
 Ti>    8   3   1     1.943458546842   129.07736791    46.90890739
 Ti>    4   2   1     1.864480942980   134.97916629   179.99739930
 Ti>    9   2   1     1.826086776009   108.34294524   179.99998252
 Ti>   10   3   1     1.826087614204   108.34294524   180.00000759
 Ti>    5   2   1     1.943460434294   129.07697438   155.26413262
 Ti>    6   2   1     1.943460549729   129.07695411   204.73573064
 Ti>    7   3   1     1.943460200909   129.07702078   155.26424088
 Ti>    8   3   1     1.943459506351   129.07704137   204.73588289
 Ti>   11   2   9     1.864477681998   134.97947132   180.00261235
 Ti>   12   3  10     1.864477681998   134.97947069   179.99738765
 Ti>   13   7   3     3.501195268645   117.99029831   293.82636289
 Ti>   24  13   7     2.961092559600    64.98414806   314.75015014
 Ti>   14   8   3     3.501195268645   117.99190683    66.17563929
 Ti>   26  14   8     2.961092559600    64.98414806    45.25001344
 Ti>   18   5   2     3.592904770073   103.75912215   182.19317944
 Ti>   19   6   2     3.592909124821   103.75914076   177.80693444
 Ti>   29  19   6     2.961104620864   114.33514894    13.70194122
 Ti>   28  18   5     2.961104620864   114.33517454   346.29812182
 Ti>   18   5   2     2.961092926020   139.62402324   342.73205762
 Ti>   19   6   2     2.961092926020   139.62403651    17.26815680
 Ti>   20   7   3     2.961094145900   139.62401672   342.73213459
 Ti>   21   8   3     2.961094145900   139.62400890    17.26767399
 Ti>   24  13   7     2.961094512320   115.01583533   134.75014177
 Ti>   25  24  13     2.961094512330   179.99998173     0.00000000
 Ti>   26  14   8     2.961094512320   115.01583533   225.25000508
 Ti>   27  26  14     2.961094512330   179.99998173     0.00000000
 Ti>   22  11   2     2.961093345411    90.00006819   179.99829400
 Ti>   23  12   3     2.961093726511    90.00000523   180.00170016
 Ti>   16   9   2     2.961104620864   144.17164420   179.99999001
 Ti>   17  10   3     2.961104620864   144.17130104   179.99998997
 Ti>   24  13   7     3.579907814782    77.15890077   245.95599690
 Ti>   27  26  14     3.579880005705    65.57043628    86.71173728
 Ti>   15   4   2     3.683197691633   156.29842650     0.00000000
 Ti>   46  15   4     2.961093535960    66.29841404   179.99359428
 Ti>   28  18   5     2.961082451064    65.66483947   166.29792358
 Ti>   29  19   6     2.961082451064    65.66487669   193.70213806
 Ti>   30  29  19     2.961082451074   179.99981884    81.86878434
 Ti>   31  28  18     2.961082451074   179.99981884   274.43353391
 Ti>   44  24  13     2.961093726511    65.57064724   248.11034328
 Ti>   44  24  13     2.961093345421   114.42936239    68.11026311
 Ti>   45  27  26     2.961093726511   114.42956738     0.00000000
 Ti>   45  27  26     2.961093345421    65.57043142   180.00003155
 Ti>   24  13   7     3.512748577370   130.05621961   314.74725307
 Ti>   26  14   8     3.512748577370   130.05621961    45.24711637
 Ti>   57  26  14     2.961093535960    65.07206331   180.00289082
 Ti>   56  24  13     2.961093535960    65.07206331   180.00289082
 Ti>   56  24  13     2.961093535960   114.92793669     0.00000000
 Ti>   57  26  14     2.961093535960   114.92793669     0.00000000
 Ti>   46  15   4     2.961093535960   113.70158596     0.00000000
 Ti>   47  46  15     2.961093535970   180.00000000     0.00000000
 Ti>   38  26  14     2.961092559600   179.99998163     0.00000000
 Ti>   36  24  13     2.961092559600   179.99998163     0.00000000
 Ti>   37  25  24     2.961092559600   179.99998173     0.00000000
 Ti>   39  27  26     2.961092559600   179.99998173     0.00000000
 Ti>   32  18   5     2.961094145910   179.99997423   164.60199535
 Ti>   33  19   6     2.961094145910   179.99997423   315.55990180
 Ti>   34  20   7     2.961092926020   179.99997423    44.44003271
 Ti>   35  21   8     2.961092926020   179.99997423   195.39805726
 Ti>   40  22  11     2.961093726511   179.99992634     4.22285443
 Ti>   41  23  12     2.961093345411   179.99992636   355.77714557
 Ti>   58  57  26     2.961093535960   180.00000000     0.00000000
 Ti>   59  56  24     2.961093535960   180.00000000     0.00000000
 Ti>   60  56  24     2.961093535970   179.99999829     0.00000000
 Ti>   61  57  26     2.961093535970   179.99999829     0.00000000
 Ti>   62  46  15     2.961093535960   179.99999879     0.00000000
 Ti>   63  47  46     2.961093535960   179.99999829     0.00000000

---------------------------
INTERNAL COORDINATES (A.U.)
---------------------------
 O      0   0   0     0.000000000000     0.00000000     0.00000000
 Ti     1   0   0     3.450826026915     0.00000000     0.00000000
 Ti     1   2   0     3.450823343607   108.34321415     0.00000000
 O      2   1   3     3.955304737318    80.80764629     0.00000000
 O      2   1   3     3.846933666000    90.70101716    89.02863937
 O      2   1   3     3.846925012404    90.70132129   270.97178739
 O      3   1   2     3.846923760006    90.70142476    89.02807847
 O      3   1   2     3.846934056476    90.70111581   270.97149260
 O      2   1   3     3.450805487392   108.34292419   179.99999251
 O      3   1   2     3.450803903448   108.34323519   180.00001748
 O      2   1   3     3.955290355280   170.84902752     0.00000000
 O      3   1   2     3.955298558482   170.84881627     0.00000000
 Ti>    7   3   1     3.672606437239   129.07739454   313.09097521
 Ti>    8   3   1     3.672604406160   129.07736791    46.90890739
 Ti>    4   2   1     3.523358364147   134.97916629   179.99739930
 Ti>    9   2   1     3.450803903433   108.34294524   179.99998252
 Ti>   10   3   1     3.450805487392   108.34294524   180.00000759
 Ti>    5   2   1     3.672607972928   129.07697438   155.26413262
 Ti>    6   2   1     3.672608191067   129.07695411   204.73573064
 Ti>    7   3   1     3.672607531894   129.07702078   155.26424088
 Ti>    8   3   1     3.672606219368   129.07704137   204.73588289
 Ti>   11   2   9     3.523352201785   134.97947132   180.00261235
 Ti>   12   3  10     3.523352201785   134.97947069   179.99738765
 Ti>   13   7   3     6.616300199121   117.99029831   293.82636289
 Ti>   24  13   7     5.595653994836    64.98414806   314.75015014
 Ti>   14   8   3     6.616300199121   117.99190683    66.17563929
 Ti>   26  14   8     5.595653994836    64.98414806    45.25001344
 Ti>   18   5   2     6.789606040697   103.75912215   182.19317944
 Ti>   19   6   2     6.789614269979   103.75914076   177.80693444
 Ti>   29  19   6     5.595676787321   114.33514894    13.70194122
 Ti>   28  18   5     5.595676787321   114.33517454   346.29812182
 Ti>   18   5   2     5.595654687269   139.62402324   342.73205762
 Ti>   19   6   2     5.595654687269   139.62403651    17.26815680
 Ti>   20   7   3     5.595656992509   139.62401672   342.73213459
 Ti>   21   8   3     5.595656992509   139.62400890    17.26767399
 Ti>   24  13   7     5.595657684942   115.01583533   134.75014177
 Ti>   25  24  13     5.595657684961   179.99998173     0.00000000
 Ti>   26  14   8     5.595657684942   115.01583533   225.25000508
 Ti>   27  26  14     5.595657684961   179.99998173     0.00000000
 Ti>   22  11   2     5.595655479803    90.00006819   179.99829400
 Ti>   23  12   3     5.595656199977    90.00000523   180.00170016
 Ti>   16   9   2     5.595676787321   144.17164420   179.99999001
 Ti>   17  10   3     5.595676787321   144.17130104   179.99998997
 Ti>   24  13   7     6.765045354623    77.15890077   245.95599690
 Ti>   27  26  14     6.764992803083    65.57043628    86.71173728
 Ti>   15   4   2     6.960234934278   156.29842650     0.00000000
 Ti>   46  15   4     5.595655839889    66.29841404   179.99359428
 Ti>   28  18   5     5.595634892471    65.66483947   166.29792358
 Ti>   29  19   6     5.595634892471    65.66487669   193.70213806
 Ti>   30  29  19     5.595634892490   179.99981884    81.86878434
 Ti>   31  28  18     5.595634892490   179.99981884   274.43353391
 Ti>   44  24  13     5.595656199977    65.57064724   248.11034328
 Ti>   44  24  13     5.595655479822   114.42936239    68.11026311
 Ti>   45  27  26     5.595656199977   114.42956738     0.00000000
 Ti>   45  27  26     5.595655479822    65.57043142   180.00003155
 Ti>   24  13   7     6.638132788552   130.05621961   314.74725307
 Ti>   26  14   8     6.638132788552   130.05621961    45.24711637
 Ti>   57  26  14     5.595655839889    65.07206331   180.00289082
 Ti>   56  24  13     5.595655839889    65.07206331   180.00289082
 Ti>   56  24  13     5.595655839889   114.92793669     0.00000000
 Ti>   57  26  14     5.595655839889   114.92793669     0.00000000
 Ti>   46  15   4     5.595655839889   113.70158596     0.00000000
 Ti>   47  46  15     5.595655839908   180.00000000     0.00000000
 Ti>   38  26  14     5.595653994836   179.99998163     0.00000000
 Ti>   36  24  13     5.595653994836   179.99998163     0.00000000
 Ti>   37  25  24     5.595653994836   179.99998173     0.00000000
 Ti>   39  27  26     5.595653994836   179.99998173     0.00000000
 Ti>   32  18   5     5.595656992527   179.99997423   164.60199535
 Ti>   33  19   6     5.595656992527   179.99997423   315.55990180
 Ti>   34  20   7     5.595654687269   179.99997423    44.44003271
 Ti>   35  21   8     5.595654687269   179.99997423   195.39805726
 Ti>   40  22  11     5.595656199977   179.99992634     4.22285443
 Ti>   41  23  12     5.595655479803   179.99992636   355.77714557
 Ti>   58  57  26     5.595655839889   180.00000000     0.00000000
 Ti>   59  56  24     5.595655839889   180.00000000     0.00000000
 Ti>   60  56  24     5.595655839908   179.99999829     0.00000000
 Ti>   61  57  26     5.595655839908   179.99999829     0.00000000
 Ti>   62  46  15     5.595655839889   179.99999879     0.00000000
 Ti>   63  47  46     5.595655839889   179.99999829     0.00000000

---------------------
BASIS SET INFORMATION
---------------------
There are 3 groups of distinct atoms

 Group   1 Type O   : 22s7p4d3f2g contracted to 6s5p4d3f2g pattern {991111/31111/1111/111/11}
 Group   2 Type Ti  : 150s105p43d4f3g2h contracted to 10s9p7d4f3g2h pattern {21212121212121111/171717171717111/10101010111/1111/111/11}
 Group   3 Type Q,> :  contracted to  pattern {}

Atom   0O    basis set group =>   1
Atom   1Ti   basis set group =>   2
Atom   2Ti   basis set group =>   2
Atom   3O    basis set group =>   1
Atom   4O    basis set group =>   1
Atom   5O    basis set group =>   1
Atom   6O    basis set group =>   1
Atom   7O    basis set group =>   1
Atom   8O    basis set group =>   1
Atom   9O    basis set group =>   1
Atom  10O    basis set group =>   1
Atom  11O    basis set group =>   1
Atom  12Ti>  basis set group =>   3
Atom  13Ti>  basis set group =>   3
Atom  14Ti>  basis set group =>   3
Atom  15Ti>  basis set group =>   3
Atom  16Ti>  basis set group =>   3
Atom  17Ti>  basis set group =>   3
Atom  18Ti>  basis set group =>   3
Atom  19Ti>  basis set group =>   3
Atom  20Ti>  basis set group =>   3
Atom  21Ti>  basis set group =>   3
Atom  22Ti>  basis set group =>   3
Atom  23Ti>  basis set group =>   3
Atom  24Ti>  basis set group =>   3
Atom  25Ti>  basis set group =>   3
Atom  26Ti>  basis set group =>   3
Atom  27Ti>  basis set group =>   3
Atom  28Ti>  basis set group =>   3
Atom  29Ti>  basis set group =>   3
Atom  30Ti>  basis set group =>   3
Atom  31Ti>  basis set group =>   3
Atom  32Ti>  basis set group =>   3
Atom  33Ti>  basis set group =>   3
Atom  34Ti>  basis set group =>   3
Atom  35Ti>  basis set group =>   3
Atom  36Ti>  basis set group =>   3
Atom  37Ti>  basis set group =>   3
Atom  38Ti>  basis set group =>   3
Atom  39Ti>  basis set group =>   3
Atom  40Ti>  basis set group =>   3
Atom  41Ti>  basis set group =>   3
Atom  42Ti>  basis set group =>   3
Atom  43Ti>  basis set group =>   3
Atom  44Ti>  basis set group =>   3
Atom  45Ti>  basis set group =>   3
Atom  46Ti>  basis set group =>   3
Atom  47Ti>  basis set group =>   3
Atom  48Ti>  basis set group =>   3
Atom  49Ti>  basis set group =>   3
Atom  50Ti>  basis set group =>   3
Atom  51Ti>  basis set group =>   3
Atom  52Ti>  basis set group =>   3
Atom  53Ti>  basis set group =>   3
Atom  54Ti>  basis set group =>   3
Atom  55Ti>  basis set group =>   3
Atom  56Ti>  basis set group =>   3
Atom  57Ti>  basis set group =>   3
Atom  58Ti>  basis set group =>   3
Atom  59Ti>  basis set group =>   3
Atom  60Ti>  basis set group =>   3
Atom  61Ti>  basis set group =>   3
Atom  62Ti>  basis set group =>   3
Atom  63Ti>  basis set group =>   3
Atom  64Ti>  basis set group =>   3
Atom  65Ti>  basis set group =>   3
Atom  66Ti>  basis set group =>   3
Atom  67Ti>  basis set group =>   3
Atom  68Ti>  basis set group =>   3
Atom  69Ti>  basis set group =>   3
Atom  70Ti>  basis set group =>   3
Atom  71Ti>  basis set group =>   3
Atom  72Ti>  basis set group =>   3
Atom  73Ti>  basis set group =>   3
Atom  74Ti>  basis set group =>   3
Atom  75Ti>  basis set group =>   3
Atom  76Ti>  basis set group =>   3
Atom  77Ti>  basis set group =>   3
Atom  78Ti>  basis set group =>   3
---------------------------------
AUXILIARY/J BASIS SET INFORMATION
---------------------------------
There are 3 groups of distinct atoms

 Group   1 Type O   : 12s5p4d2f1g contracted to 6s4p3d1f1g pattern {711111/2111/211/2/1}
 Group   2 Type Ti  : 19s5p5d3f3g contracted to 8s5p5d2f3g pattern {121111111/11111/11111/21/111}
 Group   3 Type Q,> :  contracted to  pattern {}

Atom   0O    basis set group =>   1
Atom   1Ti   basis set group =>   2
Atom   2Ti   basis set group =>   2
Atom   3O    basis set group =>   1
Atom   4O    basis set group =>   1
Atom   5O    basis set group =>   1
Atom   6O    basis set group =>   1
Atom   7O    basis set group =>   1
Atom   8O    basis set group =>   1
Atom   9O    basis set group =>   1
Atom  10O    basis set group =>   1
Atom  11O    basis set group =>   1
Atom  12Ti>  basis set group =>   3
Atom  13Ti>  basis set group =>   3
Atom  14Ti>  basis set group =>   3
Atom  15Ti>  basis set group =>   3
Atom  16Ti>  basis set group =>   3
Atom  17Ti>  basis set group =>   3
Atom  18Ti>  basis set group =>   3
Atom  19Ti>  basis set group =>   3
Atom  20Ti>  basis set group =>   3
Atom  21Ti>  basis set group =>   3
Atom  22Ti>  basis set group =>   3
Atom  23Ti>  basis set group =>   3
Atom  24Ti>  basis set group =>   3
Atom  25Ti>  basis set group =>   3
Atom  26Ti>  basis set group =>   3
Atom  27Ti>  basis set group =>   3
Atom  28Ti>  basis set group =>   3
Atom  29Ti>  basis set group =>   3
Atom  30Ti>  basis set group =>   3
Atom  31Ti>  basis set group =>   3
Atom  32Ti>  basis set group =>   3
Atom  33Ti>  basis set group =>   3
Atom  34Ti>  basis set group =>   3
Atom  35Ti>  basis set group =>   3
Atom  36Ti>  basis set group =>   3
Atom  37Ti>  basis set group =>   3
Atom  38Ti>  basis set group =>   3
Atom  39Ti>  basis set group =>   3
Atom  40Ti>  basis set group =>   3
Atom  41Ti>  basis set group =>   3
Atom  42Ti>  basis set group =>   3
Atom  43Ti>  basis set group =>   3
Atom  44Ti>  basis set group =>   3
Atom  45Ti>  basis set group =>   3
Atom  46Ti>  basis set group =>   3
Atom  47Ti>  basis set group =>   3
Atom  48Ti>  basis set group =>   3
Atom  49Ti>  basis set group =>   3
Atom  50Ti>  basis set group =>   3
Atom  51Ti>  basis set group =>   3
Atom  52Ti>  basis set group =>   3
Atom  53Ti>  basis set group =>   3
Atom  54Ti>  basis set group =>   3
Atom  55Ti>  basis set group =>   3
Atom  56Ti>  basis set group =>   3
Atom  57Ti>  basis set group =>   3
Atom  58Ti>  basis set group =>   3
Atom  59Ti>  basis set group =>   3
Atom  60Ti>  basis set group =>   3
Atom  61Ti>  basis set group =>   3
Atom  62Ti>  basis set group =>   3
Atom  63Ti>  basis set group =>   3
Atom  64Ti>  basis set group =>   3
Atom  65Ti>  basis set group =>   3
Atom  66Ti>  basis set group =>   3
Atom  67Ti>  basis set group =>   3
Atom  68Ti>  basis set group =>   3
Atom  69Ti>  basis set group =>   3
Atom  70Ti>  basis set group =>   3
Atom  71Ti>  basis set group =>   3
Atom  72Ti>  basis set group =>   3
Atom  73Ti>  basis set group =>   3
Atom  74Ti>  basis set group =>   3
Atom  75Ti>  basis set group =>   3
Atom  76Ti>  basis set group =>   3
Atom  77Ti>  basis set group =>   3
Atom  78Ti>  basis set group =>   3
---------------------------------
AUXILIARY/C BASIS SET INFORMATION
---------------------------------
There are 3 groups of distinct atoms

 Group   1 Type O   : 16s14p13d7f7g5h contracted to 16s14p13d7f7g5h pattern {1111111111111111/11111111111111/1111111111111/1111111/1111111/11111}
 Group   2 Type Ti  : 20s17p16d16f16g9h5i4j contracted to 20s17p16d16f16g9h5i4j pattern {11111111111111111111/11111111111111111/1111111111111111/1111111111111111/1111111111111111/111111111/11111/1111}
 Group   3 Type Q,> :  contracted to  pattern {}

Atom   0O    basis set group =>   1
Atom   1Ti   basis set group =>   2
Atom   2Ti   basis set group =>   2
Atom   3O    basis set group =>   1
Atom   4O    basis set group =>   1
Atom   5O    basis set group =>   1
Atom   6O    basis set group =>   1
Atom   7O    basis set group =>   1
Atom   8O    basis set group =>   1
Atom   9O    basis set group =>   1
Atom  10O    basis set group =>   1
Atom  11O    basis set group =>   1
Atom  12Ti>  basis set group =>   3
Atom  13Ti>  basis set group =>   3
Atom  14Ti>  basis set group =>   3
Atom  15Ti>  basis set group =>   3
Atom  16Ti>  basis set group =>   3
Atom  17Ti>  basis set group =>   3
Atom  18Ti>  basis set group =>   3
Atom  19Ti>  basis set group =>   3
Atom  20Ti>  basis set group =>   3
Atom  21Ti>  basis set group =>   3
Atom  22Ti>  basis set group =>   3
Atom  23Ti>  basis set group =>   3
Atom  24Ti>  basis set group =>   3
Atom  25Ti>  basis set group =>   3
Atom  26Ti>  basis set group =>   3
Atom  27Ti>  basis set group =>   3
Atom  28Ti>  basis set group =>   3
Atom  29Ti>  basis set group =>   3
Atom  30Ti>  basis set group =>   3
Atom  31Ti>  basis set group =>   3
Atom  32Ti>  basis set group =>   3
Atom  33Ti>  basis set group =>   3
Atom  34Ti>  basis set group =>   3
Atom  35Ti>  basis set group =>   3
Atom  36Ti>  basis set group =>   3
Atom  37Ti>  basis set group =>   3
Atom  38Ti>  basis set group =>   3
Atom  39Ti>  basis set group =>   3
Atom  40Ti>  basis set group =>   3
Atom  41Ti>  basis set group =>   3
Atom  42Ti>  basis set group =>   3
Atom  43Ti>  basis set group =>   3
Atom  44Ti>  basis set group =>   3
Atom  45Ti>  basis set group =>   3
Atom  46Ti>  basis set group =>   3
Atom  47Ti>  basis set group =>   3
Atom  48Ti>  basis set group =>   3
Atom  49Ti>  basis set group =>   3
Atom  50Ti>  basis set group =>   3
Atom  51Ti>  basis set group =>   3
Atom  52Ti>  basis set group =>   3
Atom  53Ti>  basis set group =>   3
Atom  54Ti>  basis set group =>   3
Atom  55Ti>  basis set group =>   3
Atom  56Ti>  basis set group =>   3
Atom  57Ti>  basis set group =>   3
Atom  58Ti>  basis set group =>   3
Atom  59Ti>  basis set group =>   3
Atom  60Ti>  basis set group =>   3
Atom  61Ti>  basis set group =>   3
Atom  62Ti>  basis set group =>   3
Atom  63Ti>  basis set group =>   3
Atom  64Ti>  basis set group =>   3
Atom  65Ti>  basis set group =>   3
Atom  66Ti>  basis set group =>   3
Atom  67Ti>  basis set group =>   3
Atom  68Ti>  basis set group =>   3
Atom  69Ti>  basis set group =>   3
Atom  70Ti>  basis set group =>   3
Atom  71Ti>  basis set group =>   3
Atom  72Ti>  basis set group =>   3
Atom  73Ti>  basis set group =>   3
Atom  74Ti>  basis set group =>   3
Atom  75Ti>  basis set group =>   3
Atom  76Ti>  basis set group =>   3
Atom  77Ti>  basis set group =>   3
Atom  78Ti>  basis set group =>   3
-------------------------
ECP PARAMETER INFORMATION
-------------------------

 Group 1, Type Ti ECP (replacing 0 core electrons, lmax=3)

Atom  12Ti>  ECP group =>   1
Atom  13Ti>  ECP group =>   1
Atom  14Ti>  ECP group =>   1
Atom  15Ti>  ECP group =>   1
Atom  16Ti>  ECP group =>   1
Atom  17Ti>  ECP group =>   1
Atom  18Ti>  ECP group =>   1
Atom  19Ti>  ECP group =>   1
Atom  20Ti>  ECP group =>   1
Atom  21Ti>  ECP group =>   1
Atom  22Ti>  ECP group =>   1
Atom  23Ti>  ECP group =>   1
Atom  24Ti>  ECP group =>   1
Atom  25Ti>  ECP group =>   1
Atom  26Ti>  ECP group =>   1
Atom  27Ti>  ECP group =>   1
Atom  28Ti>  ECP group =>   1
Atom  29Ti>  ECP group =>   1
Atom  30Ti>  ECP group =>   1
Atom  31Ti>  ECP group =>   1
Atom  32Ti>  ECP group =>   1
Atom  33Ti>  ECP group =>   1
Atom  34Ti>  ECP group =>   1
Atom  35Ti>  ECP group =>   1
Atom  36Ti>  ECP group =>   1
Atom  37Ti>  ECP group =>   1
Atom  38Ti>  ECP group =>   1
Atom  39Ti>  ECP group =>   1
Atom  40Ti>  ECP group =>   1
Atom  41Ti>  ECP group =>   1
Atom  42Ti>  ECP group =>   1
Atom  43Ti>  ECP group =>   1
Atom  44Ti>  ECP group =>   1
Atom  45Ti>  ECP group =>   1
Atom  46Ti>  ECP group =>   1
Atom  47Ti>  ECP group =>   1
Atom  48Ti>  ECP group =>   1
Atom  49Ti>  ECP group =>   1
Atom  50Ti>  ECP group =>   1
Atom  51Ti>  ECP group =>   1
Atom  52Ti>  ECP group =>   1
Atom  53Ti>  ECP group =>   1
Atom  54Ti>  ECP group =>   1
Atom  55Ti>  ECP group =>   1
Atom  56Ti>  ECP group =>   1
Atom  57Ti>  ECP group =>   1
Atom  58Ti>  ECP group =>   1
Atom  59Ti>  ECP group =>   1
Atom  60Ti>  ECP group =>   1
Atom  61Ti>  ECP group =>   1
Atom  62Ti>  ECP group =>   1
Atom  63Ti>  ECP group =>   1
Atom  64Ti>  ECP group =>   1
Atom  65Ti>  ECP group =>   1
Atom  66Ti>  ECP group =>   1
Atom  67Ti>  ECP group =>   1
Atom  68Ti>  ECP group =>   1
Atom  69Ti>  ECP group =>   1
Atom  70Ti>  ECP group =>   1
Atom  71Ti>  ECP group =>   1
Atom  72Ti>  ECP group =>   1
Atom  73Ti>  ECP group =>   1
Atom  74Ti>  ECP group =>   1
Atom  75Ti>  ECP group =>   1
Atom  76Ti>  ECP group =>   1
Atom  77Ti>  ECP group =>   1
Atom  78Ti>  ECP group =>   1



           ************************************************************
           *        Program running with 16 parallel MPI-processes    *
           *              working on a common directory               *
           ************************************************************
------------------------------------------------------------------------------
                           ORCA GTO INTEGRAL CALCULATION
                           -- RI-GTO INTEGRALS CHOSEN --
------------------------------------------------------------------------------
[...]
           *        Program running with 16 parallel MPI-processes    *
           *              working on a common directory               *
           ************************************************************

------------------------------------------------------------------------------
                                ORCA  MP2 
------------------------------------------------------------------------------

Freezing NCore=40 chemical core electrons
Initializing SHARK ... done


------------------------------------------------------------------------------
                           ORCA ORBITAL LOCALIZATION
------------------------------------------------------------------------------

Input orbitals are from                  ... orca.gbw
Output orbitals are to                   ... orca.loc
Max. number of iterations                ... 128
Localizations seeded randomly            ... off
Convergence tolerance                    ... 2.000e-07
Treshold for strong local MOs            ... 9.500e-01
Treshold for bond MOs                    ... 8.500e-01
Operator                                 ... 0
Orbital range for localization           ... 20 to 67
Localization criterion                   ... FOSTER-BOYS (AUGMENTED HESSIAN)
Doing the dipole integrals     ... o.k.
Initial value of the localization sum :   678.357188
ITERATION   0 : L= 1144.3232833012 DL=  4.66e+02 (AVERGE_DL)=    0.6427211759 
ITERATION   1 : L= 1305.9334925932 DL=  1.62e+02 (AVERGE_DL)=    0.3785121691 
ITERATION   2 : L= 1318.1798341480 DL=  1.22e+01 (AVERGE_DL)=    0.1041954211 
ITERATION   3 : L= 1318.4824675215 DL=  3.03e-01 (AVERGE_DL)=    0.0163796214 
ITERATION   4 : L= 1318.5730314064 DL=  9.06e-02 (AVERGE_DL)=    0.0089603087 
ITERATION   5 : L= 1318.6321247596 DL=  5.91e-02 (AVERGE_DL)=    0.0072379365 
ITERATION   6 : L= 1318.6648916100 DL=  3.28e-02 (AVERGE_DL)=    0.0053896777 
ITERATION   7 : L= 1318.6825465819 DL=  1.77e-02 (AVERGE_DL)=    0.0039562066 
ITERATION   8 : L= 1318.6929058566 DL=  1.04e-02 (AVERGE_DL)=    0.0030304709 
ITERATION   9 : L= 1318.7002438658 DL=  7.34e-03 (AVERGE_DL)=    0.0025505543 
ITERATION  10 : L= 1318.7063882846 DL=  6.14e-03 (AVERGE_DL)=    0.0023339194 
ITERATION  11 : L= 1318.7120111443 DL=  5.62e-03 (AVERGE_DL)=    0.0022326676 
ITERATION  12 : L= 1318.7172992808 DL=  5.29e-03 (AVERGE_DL)=    0.0021651938 
ITERATION  13 : L= 1318.7222594101 DL=  4.96e-03 (AVERGE_DL)=    0.0020969687 
ITERATION  14 : L= 1318.7268484511 DL=  4.59e-03 (AVERGE_DL)=    0.0020170024 
ITERATION  15 : L= 1318.7310268515 DL=  4.18e-03 (AVERGE_DL)=    0.0019246443 
ITERATION  16 : L= 1318.7347767472 DL=  3.75e-03 (AVERGE_DL)=    0.0018232871 
ITERATION  17 : L= 1318.7381038884 DL=  3.33e-03 (AVERGE_DL)=    0.0017174380 
ITERATION  18 : L= 1318.7410324580 DL=  2.93e-03 (AVERGE_DL)=    0.0016112882 
ITERATION  19 : L= 1318.7435980271 DL=  2.57e-03 (AVERGE_DL)=    0.0015081249 
ITERATION  20 : L= 1318.7458412159 DL=  2.24e-03 (AVERGE_DL)=    0.0014101924 
ITERATION  21 : L= 1318.7478030054 DL=  1.96e-03 (AVERGE_DL)=    0.0013187779 
ITERATION  22 : L= 1318.7495218335 DL=  1.72e-03 (AVERGE_DL)=    0.0012344164 
ITERATION  23 : L= 1318.7510320879 DL=  1.51e-03 (AVERGE_DL)=    0.0011570990 
ITERATION  24 : L= 1318.7523636136 DL=  1.33e-03 (AVERGE_DL)=    0.0010864762 
ITERATION  25 : L= 1318.7535417696 DL=  1.18e-03 (AVERGE_DL)=    0.0010219905 
ITERATION  26 : L= 1318.7545878834 DL=  1.05e-03 (AVERGE_DL)=    0.0009630192 
ITERATION  27 : L= 1318.7555197938 DL=  9.32e-04 (AVERGE_DL)=    0.0009089344 
ITERATION  28 : L= 1318.7563523626 DL=  8.33e-04 (AVERGE_DL)=    0.0008591233 
ITERATION  29 : L= 1318.7570980444 DL=  7.46e-04 (AVERGE_DL)=    0.0008130593 
ITERATION  30 : L= 1318.7577673294 DL=  6.69e-04 (AVERGE_DL)=    0.0007702842 
ITERATION  31 : L= 1318.7583690824 DL=  6.02e-04 (AVERGE_DL)=    0.0007303896 
ITERATION  32 : L= 1318.7589108753 DL=  5.42e-04 (AVERGE_DL)=    0.0006930461 
ITERATION  33 : L= 1318.7593992147 DL=  4.88e-04 (AVERGE_DL)=    0.0006579703 
ITERATION  34 : L= 1318.7598397620 DL=  4.41e-04 (AVERGE_DL)=    0.0006249449 
ITERATION  35 : L= 1318.7602374462 DL=  3.98e-04 (AVERGE_DL)=    0.0005937650 
ITERATION  36 : L= 1318.7605966245 DL=  3.59e-04 (AVERGE_DL)=    0.0005642876 
ITERATION  37 : L= 1318.7609211262 DL=  3.25e-04 (AVERGE_DL)=    0.0005363570 
ITERATION  38 : L= 1318.7612143767 DL=  2.93e-04 (AVERGE_DL)=    0.0005098763 
ITERATION  39 : L= 1318.7614794336 DL=  2.65e-04 (AVERGE_DL)=    0.0004847468 
ITERATION  40 : L= 1318.7617190215 DL=  2.40e-04 (AVERGE_DL)=    0.0004608695 
ITERATION  41 : L= 1318.7619356081 DL=  2.17e-04 (AVERGE_DL)=    0.0004381887 
ITERATION  42 : L= 1318.7621314045 DL=  1.96e-04 (AVERGE_DL)=    0.0004166274 
ITERATION  43 : L= 1318.7623084021 DL=  1.77e-04 (AVERGE_DL)=    0.0003961221 
ITERATION  44 : L= 1318.7624683974 DL=  1.60e-04 (AVERGE_DL)=    0.0003766163 
ITERATION  45 : L= 1318.7626130202 DL=  1.45e-04 (AVERGE_DL)=    0.0003580666 
ITERATION  46 : L= 1318.7627437458 DL=  1.31e-04 (AVERGE_DL)=    0.0003404284 
ITERATION  47 : L= 1318.7628619022 DL=  1.18e-04 (AVERGE_DL)=    0.0003236489 
ITERATION  48 : L= 1318.7629686936 DL=  1.07e-04 (AVERGE_DL)=    0.0003076901 
ITERATION  49 : L= 1318.7630652094 DL=  9.65e-05 (AVERGE_DL)=    0.0002925127 
ITERATION  50 : L= 1318.7631524297 DL=  8.72e-05 (AVERGE_DL)=    0.0002780700 
ITERATION  51 : L= 1318.7632312497 DL=  7.88e-05 (AVERGE_DL)=    0.0002643405 
ITERATION  52 : L= 1318.7633024720 DL=  7.12e-05 (AVERGE_DL)=    0.0002512774 
ITERATION  53 : L= 1318.7633668329 DL=  6.44e-05 (AVERGE_DL)=    0.0002388672 
ITERATION  54 : L= 1318.7634249853 DL=  5.82e-05 (AVERGE_DL)=    0.0002270542 
ITERATION  55 : L= 1318.7634775281 DL=  5.25e-05 (AVERGE_DL)=    0.0002158250 
ITERATION  56 : L= 1318.7635250044 DL=  4.75e-05 (AVERGE_DL)=    0.0002051561 
ITERATION  57 : L= 1318.7635679032 DL=  4.29e-05 (AVERGE_DL)=    0.0001950150 
ITERATION  58 : L= 1318.7636066574 DL=  3.88e-05 (AVERGE_DL)=    0.0001853552 
ITERATION  59 : L= 1318.7636416745 DL=  3.50e-05 (AVERGE_DL)=    0.0001761917 
ITERATION  60 : L= 1318.7636733101 DL=  3.16e-05 (AVERGE_DL)=    0.0001674686 
ITERATION  61 : L= 1318.7637018916 DL=  2.86e-05 (AVERGE_DL)=    0.0001591797 
ITERATION  62 : L= 1318.7637277143 DL=  2.58e-05 (AVERGE_DL)=    0.0001513026 
ITERATION  63 : L= 1318.7637510435 DL=  2.33e-05 (AVERGE_DL)=    0.0001438122 
ITERATION  64 : L= 1318.7637721216 DL=  2.11e-05 (AVERGE_DL)=    0.0001366977 
ITERATION  65 : L= 1318.7637911639 DL=  1.90e-05 (AVERGE_DL)=    0.0001299288 
ITERATION  66 : L= 1318.7638083707 DL=  1.72e-05 (AVERGE_DL)=    0.0001235080 
ITERATION  67 : L= 1318.7638239123 DL=  1.55e-05 (AVERGE_DL)=    0.0001173799 
ITERATION  68 : L= 1318.7638379548 DL=  1.40e-05 (AVERGE_DL)=    0.0001115750 
ITERATION  69 : L= 1318.7638506431 DL=  1.27e-05 (AVERGE_DL)=    0.0001060591 
ITERATION  70 : L= 1318.7638621065 DL=  1.15e-05 (AVERGE_DL)=    0.0001008093 
ITERATION  71 : L= 1318.7638724644 DL=  1.04e-05 (AVERGE_DL)=    0.0000958259 
ITERATION  72 : L= 1318.7638818250 DL=  9.36e-06 (AVERGE_DL)=    0.0000910954 
ITERATION  73 : L= 1318.7638902783 DL=  8.45e-06 (AVERGE_DL)=    0.0000865679 
ITERATION  74 : L= 1318.7638979163 DL=  7.64e-06 (AVERGE_DL)=    0.0000822879 
ITERATION  75 : L= 1318.7639048200 DL=  6.90e-06 (AVERGE_DL)=    0.0000782326 
ITERATION  76 : L= 1318.7639110546 DL=  6.23e-06 (AVERGE_DL)=    0.0000743446 
ITERATION  77 : L= 1318.7639166931 DL=  5.64e-06 (AVERGE_DL)=    0.0000707009 
ITERATION  78 : L= 1318.7639217841 DL=  5.09e-06 (AVERGE_DL)=    0.0000671816 
ITERATION  79 : L= 1318.7639263847 DL=  4.60e-06 (AVERGE_DL)=    0.0000638636 
ITERATION  80 : L= 1318.7639305431 DL=  4.16e-06 (AVERGE_DL)=    0.0000607161 
ITERATION  81 : L= 1318.7639343019 DL=  3.76e-06 (AVERGE_DL)=    0.0000577259 
ITERATION  82 : L= 1318.7639376962 DL=  3.39e-06 (AVERGE_DL)=    0.0000548559 
ITERATION  83 : L= 1318.7639407644 DL=  3.07e-06 (AVERGE_DL)=    0.0000521535 
ITERATION  84 : L= 1318.7639435361 DL=  2.77e-06 (AVERGE_DL)=    0.0000495699 
ITERATION  85 : L= 1318.7639460415 DL=  2.51e-06 (AVERGE_DL)=    0.0000471285 
ITERATION  86 : L= 1318.7639483052 DL=  2.26e-06 (AVERGE_DL)=    0.0000447983 
ITERATION  87 : L= 1318.7639503514 DL=  2.05e-06 (AVERGE_DL)=    0.0000425909 
ITERATION  88 : L= 1318.7639522017 DL=  1.85e-06 (AVERGE_DL)=    0.0000405012 
ITERATION  89 : L= 1318.7639538748 DL=  1.67e-06 (AVERGE_DL)=    0.0000385135 
ITERATION  90 : L= 1318.7639553854 DL=  1.51e-06 (AVERGE_DL)=    0.0000365945 
ITERATION  91 : L= 1318.7639567504 DL=  1.36e-06 (AVERGE_DL)=    0.0000347865 
ITERATION  92 : L= 1318.7639579868 DL=  1.24e-06 (AVERGE_DL)=    0.0000331068 
ITERATION  93 : L= 1318.7639591016 DL=  1.11e-06 (AVERGE_DL)=    0.0000314374 
ITERATION  94 : L= 1318.7639601088 DL=  1.01e-06 (AVERGE_DL)=    0.0000298825 
ITERATION  95 : L= 1318.7639610200 DL=  9.11e-07 (AVERGE_DL)=    0.0000284210 
LOCALIZATION SUM CONVERGED

------------------------------------------------------
AUGMENTED HESSIAN OPTIMIZATION OF FOSTER-BOYS ORBITALS
------------------------------------------------------

Spin operator:           0
Orbital window:          20 to 67
Number of iterations:    128
Gradient tolerance:      2.000e-07
Number of pairs:         1128
Davidson threshold:      2000
Diagonalization method:  LAPACK
Iter:    0   L: 1318.7639610200   Grad. norm: 5.830875e-03
   *** Likely close to a maximum now. ***
       Augmented Hessian eigenvalues:  1.73e-05 -5.90e-02 -5.90e-02 -5.92e-02 ... 
Iter:    1   L: 1318.7639696706   Grad. norm: 6.219368e-05
Iter:    2   L: 1318.7639696707   Grad. norm: 1.980935e-10
LOCALIZATION HAS CONVERGED.

Eigenvalues of the Hessian:
  0 -5.898e-02
  1 -5.901e-02
  2 -5.918e-02
  3 -5.921e-02
  4 -7.381e-02
  5 -7.381e-02
  6 -9.761e-02
  7 -1.322e-01
  8 -1.322e-01
  9 -1.571e-01
    ...


------------------------------------------------------------------------------- 
                    LOCALIZED MOLECULAR ORBITAL COMPOSITIONS                   
------------------------------------------------------------------------------- 

The Mulliken populations for each LMO on each atom are computed
The LMO`s will be ordered according to atom index and type
  (A) Strongly localized MO`s have populations of >=0.950 on one atom
  (B) Two center bond orbitals have populations of >=0.850 on two atoms
  (C) Other MO`s are considered to be `delocalized`

FOUND  -  36 strongly local MO`s
       -  12 two center bond MO`s
       -   0 significantly delocalized MO`s

Rather strongly localized orbitals:
MO  55:  11O  -   1.063465
MO  54:  11O  -   1.063448
MO  53:  11O  -   1.345800
MO  52:  10O  -   1.063436
MO  51:  10O  -   1.063497
MO  50:  10O  -   1.345802
MO  49:   9O  -   1.213894
MO  48:   9O  -   1.213919
MO  47:   9O  -   1.091451
MO  46:   8O  -   1.091470
MO  45:   8O  -   1.213869
MO  44:   8O  -   1.213889
MO  43:   7O  -   1.227368
MO  42:   7O  -   1.299178
MO  41:   7O  -   1.229684
MO  40:   6O  -   1.227522
MO  39:   6O  -   1.299072
MO  38:   6O  -   1.229701
MO  37:   5O  -   1.299084
MO  36:   5O  -   1.227531
MO  35:   5O  -   1.229692
MO  34:   4O  -   1.227382
MO  33:   4O  -   1.299211
MO  32:   4O  -   1.229674
MO  31:   3O  -   1.439209
MO  30:   3O  -   1.439039
MO  29:   2Ti -   1.031918
MO  28:   2Ti -   0.994288
MO  27:   2Ti -   1.006179
MO  26:   2Ti -   1.006130
MO  25:   1Ti -   1.006135
MO  24:   1Ti -   1.006189
MO  23:   1Ti -   0.994298
MO  22:   1Ti -   1.031915
MO  21:   0O  -   0.954085
MO  20:   0O  -   1.008591
Bond-like localized orbitals:
MO  67:  11O  -   0.833899  and   1Ti -   0.140298
MO  66:  10O  -   0.833902  and   2Ti -   0.140249
MO  65:   9O  -   0.568992  and   2Ti -   0.392286
MO  64:   8O  -   0.568936  and   1Ti -   0.392245
MO  63:   7O  -   0.763562  and   2Ti -   0.252129
MO  62:   6O  -   0.763548  and   2Ti -   0.251908
MO  61:   5O  -   0.763545  and   1Ti -   0.251888
MO  60:   4O  -   0.763541  and   1Ti -   0.252193
MO  59:   3O  -   0.816281  and   2Ti -   0.133482
MO  58:   3O  -   0.816242  and   1Ti -   0.133471
MO  57:   2Ti -   0.159201  and   0O  -   0.848723
MO  56:   1Ti -   0.159028  and   0O  -   0.848788
Localized MO's were stored in: orca.loc



Calculating differential overlap integrals ... ok
Threshold for domain construction in prescreening: TCutDOPre = 3.0e-02

--------------------------
ELECTRON PAIR PRESCREENING
--------------------------

Dipole-based pair screening          .... used

   TCutDOij = 1.000000e-05
   TCutPre  = 1.000000e-06
   .... Finished loop over pairs
Total time spent in the prescreening                  ...     0.005 sec
sum of pair energies estimated for screened out pairs ...       0.000000000000 Eh

---------------------------
MAP CONSTRUCTION THRESHOLDS
---------------------------
    TCutMKN     ...     1.0e-03
    TCutDO      ...     1.0e-02
    TCutC(MO)   ...     1.0e-03
    TCutC(PAO)  ...     1.0e-03

--------------------------------
LOCAL RI TRANSFORMATION (IAVPAO)
--------------------------------

Orbital window:      20 to 67
Number of PAOs:    1098
Basis functions:   1098 (270 shells)
Aux. functions:    4162 (826 shells)
Use SHARK:           on

Processing maps (0.0 sec)
Average map sizes:
   Aux shells -> MOs              48.0
   Aux shells -> PAOs           1098.0
   MOs        -> AO shells       270.0
   PAOs       -> AO shells       270.0

Calculating integrals (26.4 sec, 1673.586 MB)
Sorting integrals (2.5 sec, 1673.539 MB)
Total time for the integral transformation: 29.1 sec

----------------------------
Local MP2 Energy Calculation
----------------------------
Number of orbital pairs included:   1176
Truncation parameters:
    PAOOverlapThresh    =        1.000e-08
    TCutPNO             =        1.000e-08

Spin component scaling                      .... not used
MP2 energy scaling factor                   .... 1.000

Formation of semicanonical amplitudes.
 10% done.
 20% done.
 30% done.
 40% done.
 50% done.
 60% done.
 70% done.
 80% done.
 90% done.
100% done.

Finished the LMP2 guess in 282.0 sec.

Average number of PAOs per pair        1033.9
Average number of nrPAOs per pair      988.0
Average number of PNOs per pair         55.5
Average number of AUX  per pair        3576.3

Semicanonical MP2 energy:                   -3.641107267572 Eh
Semicanonical MP2 energy in PNO basis:      -3.639119863884 Eh

Initial amplitudes guess done. Entering DLPNO-MP2 iteration loop:
   Max. no of iterations          ...  100
   Energy convergence tolerance   ...    1.0e-09 Eh
   Residual convergence tolerance ...    5.0e-09
   Fock matrix cutoff             ...    1.0e-05 Eh
   Max # vectors in DIIS          ...  7
   Start iteration of DIIS        ...  0
   Levelshift                     ...  2.000e-01 Eh
   Damping before turning on DIIS ...  5.000e-01
   Damping after turning on DIIS  ...  0.000e+00

                           *** Turning on DIIS ***
Iter=   0:  ECORR= -3.751812934971  DE=   1.1e-01 RMAX=   1.2e-02
Iter=   1:  ECORR= -3.801144231954  DE=   4.9e-02 RMAX=   4.8e-03
Iter=   2:  ECORR= -3.810409017619  DE=   9.3e-03 RMAX=   1.1e-03
Iter=   3:  ECORR= -3.811805480983  DE=   1.4e-03 RMAX=   4.9e-04
Iter=   4:  ECORR= -3.811904874997  DE=   9.9e-05 RMAX=   9.6e-05
Iter=   5:  ECORR= -3.811891411077  DE=   1.3e-05 RMAX=   4.0e-05
Iter=   6:  ECORR= -3.811886663135  DE=   4.7e-06 RMAX=   4.8e-06
Iter=   7:  ECORR= -3.811886072340  DE=   5.9e-07 RMAX=   1.9e-06
Iter=   8:  ECORR= -3.811886087366  DE=   1.5e-08 RMAX=   2.5e-07
Iter=   9:  ECORR= -3.811886077196  DE=   1.0e-08 RMAX=   9.3e-08
Iter=  10:  ECORR= -3.811886089312  DE=   1.2e-08 RMAX=   2.2e-08
Iter=  11:  ECORR= -3.811886088620  DE=   6.9e-10 RMAX=   4.8e-09 => CONVERGED

Finished the DLPNO-MP2 iterations in 63.1 sec.

LMP2 correlation energy (all non-screened pairs)      ...     -3.811886088620 Eh
Semicanonical PNO correction to energy                ...     -0.001987403688 Eh
Sum of pair energies estimated for screened out pairs ...      0.000000000000 Eh
                                                         -----------------------
Total:                                                ...     -3.813873492308 Eh

------------------------------------------------------
 DLPNO-MP2 CORRELATION ENERGY:      -3.813873492308 Eh
------------------------------------------------------

TIMINGS FOR DLPNO-MP2:
Localization                             ...        1.956 sec
Differential overlap integrals           ...        1.560 sec
Prescreening                             ...        2.241 sec
Map setup                                ...        0.095 sec
(ia|v) trafo                             ...       29.087 sec
Semicanonical amplitudes                 ...      241.319 sec
PNO construction                         ...       31.023 sec
DLPNO-MP2 iterations                     ...       63.139 sec
                                             ----------------
Total time                                        382.863 sec


---------------------------------------
MP2 TOTAL ENERGY:    -5090.964291790 Eh
---------------------------------------

Maximum memory used throughout the entire MP2-calculation: 2253.3 MB

-------------------------   --------------------
FINAL SINGLE POINT ENERGY     -5090.964291790142
-------------------------   --------------------


                            ***************************************
                            *     ORCA property calculations      *
                            ***************************************


  WARNING: The energy has been calculated at the MP2 level but the densities
           used in the property calculations are still SCF densities
           MP2 response densities have not been calculated 
           use %mp2 Density relaxed end
           or  %mp2 Density unrelaxed end

                                    ---------------------
                                    Active property flags
                                    ---------------------
   (+) Dipole Moment


------------------------------------------------------------------------------
                       ORCA ELECTRIC PROPERTIES CALCULATION
------------------------------------------------------------------------------

Dipole Moment Calculation                       ... on
Quadrupole Moment Calculation                   ... off
Polarizability Calculation                      ... off
GBWName                                         ... orca.gbw
Electron density                                ... orca.scfp
The origin for moment calculation is the CENTER OF MASS  = ( 0.000007, -0.000002 -2.185680)

-------------
DIPOLE MOMENT
-------------
                                X             Y             Z
Electronic contribution:      0.00012       0.00001       8.58584
Nuclear contribution   :     -0.01261       0.00011   -1455.33764
                        -----------------------------------------
Total Dipole Moment    :     -0.01249       0.00012   -1446.75180
                        -----------------------------------------
Magnitude (a.u.)       :   1446.75180
Magnitude (Debye)      :   3677.35084



--------------------
Rotational spectrum 
--------------------
 
Rotational constants in cm-1:     0.039839     0.015763     0.014329 
Rotational constants in MHz :  1194.357760   472.561051   429.565796 

 Dipole components along the rotational axes: 
x,y,z [a.u.] :     0.000622    -0.010885 -1446.751805 
x,y,z [Debye]:     0.001582    -0.027667 -3677.350844 

 

Timings for individual modules:

Sum of individual times         ...     1474.055 sec (=  24.568 min)
GTO integral calculation        ...      457.000 sec (=   7.617 min)  31.0 %
SCF iterations                  ...      632.836 sec (=  10.547 min)  42.9 %
MP2 module                      ...      384.219 sec (=   6.404 min)  26.1 %
                             ****ORCA TERMINATED NORMALLY****
TOTAL RUN TIME: 0 days 0 hours 24 minutes 35 seconds 985 msec
