 **********************************************************************
                          MRCC program system
 **********************************************************************
 
                              Written by
 Mihaly Kallay, Peter R. Nagy, David Mester, Zoltan Rolik, Gyula Samu,
   Jozsef Csontos, Jozsef Csoka, P. Bernat Szabo, Laszlo Gyevi-Nagy,
    Bence Hegely, Istvan Ladjanszki, Lorant Szegedy, Bence Ladoczki,
       Klara Petrov, Mate Farkas, Pal D. Mezei, and Adam Ganyecz
 
        Department of Physical Chemistry and Materials Science
            Budapest University of Technology and Economics
                  Budapest P.O.Box 91, H-1521 Hungary
 
                              www.mrcc.hu
 
                    Release date: February 22, 2020

 ************************ 2021-11-07 18:29:51 *************************
 Executing minp...

 Reading input from MINP...
 
 Input file:
 
calc=LNO-CCSD(T)
scftype=rhf
verbosity=3
mem=470GB
symm=off
unit=angs
scfiguess=small
scfmaxit=1000
scfalg=locfit1

lcorthr=Loose
ccmaxit=400
usedisk=0
ccsdalg=dfdirect
ccsdthreads=4
ccsdmkl=thr
ptthreads=4

charge=-18
core=18

basis=special
def2-SVP
def2-SVP
def2-SVP
def2-SVP
def2-SVP
def2-SVP
def2-SVP
def2-SVP
def2-SVP
def2-SVP
def2-SVP
def2-SVP
def2-SVP
def2-SVP
def2-SVP
def2-SVP
def2-SVP
def2-SVP
def2-SVP
nothing
nothing
nothing
nothing
nothing
nothing
nothing
nothing
nothing
nothing
nothing
nothing
nothing
nothing
nothing
nothing
nothing
nothing
nothing
nothing
nothing
nothing
nothing
nothing
nothing
nothing
nothing
nothing
nothing
nothing
nothing
nothing
nothing
nothing
nothing
nothing
nothing
nothing
nothing
nothing
nothing
nothing
nothing
nothing
nothing
nothing
nothing
nothing
nothing
nothing
nothing
nothing
nothing
nothing
nothing
nothing
nothing
nothing
nothing
nothing
nothing
nothing
nothing
nothing
nothing
nothing
nothing
nothing
nothing
nothing
nothing
nothing
nothing
nothing
nothing
nothing
nothing
nothing
nothing
nothing
nothing
nothing
nothing
nothing
nothing
nothing
nothing
nothing
nothing
nothing
nothing
nothing
nothing
nothing
nothing
nothing
nothing
nothing
nothing
nothing
nothing
nothing
nothing
nothing
nothing
nothing
nothing
nothing
nothing
nothing
nothing
nothing
nothing
nothing
nothing
nothing
nothing
nothing
nothing
nothing
nothing
nothing
nothing
nothing
nothing
nothing
nothing
nothing
nothing
nothing
nothing
nothing
nothing
nothing
nothing
nothing
nothing
nothing
nothing
nothing
nothing
nothing
nothing
nothing
nothing
nothing

basis_sm=special
STO-3G
STO-3G
STO-3G
STO-3G
STO-3G
STO-3G
STO-3G
STO-3G
STO-3G
STO-3G
STO-3G
STO-3G
STO-3G
STO-3G
STO-3G
STO-3G
STO-3G
STO-3G
STO-3G
nothing
nothing
nothing
nothing
nothing
nothing
nothing
nothing
nothing
nothing
nothing
nothing
nothing
nothing
nothing
nothing
nothing
nothing
nothing
nothing
nothing
nothing
nothing
nothing
nothing
nothing
nothing
nothing
nothing
nothing
nothing
nothing
nothing
nothing
nothing
nothing
nothing
nothing
nothing
nothing
nothing
nothing
nothing
nothing
nothing
nothing
nothing
nothing
nothing
nothing
nothing
nothing
nothing
nothing
nothing
nothing
nothing
nothing
nothing
nothing
nothing
nothing
nothing
nothing
nothing
nothing
nothing
nothing
nothing
nothing
nothing
nothing
nothing
nothing
nothing
nothing
nothing
nothing
nothing
nothing
nothing
nothing
nothing
nothing
nothing
nothing
nothing
nothing
nothing
nothing
nothing
nothing
nothing
nothing
nothing
nothing
nothing
nothing
nothing
nothing
nothing
nothing
nothing
nothing
nothing
nothing
nothing
nothing
nothing
nothing
nothing
nothing
nothing
nothing
nothing
nothing
nothing
nothing
nothing
nothing
nothing
nothing
nothing
nothing
nothing
nothing
nothing
nothing
nothing
nothing
nothing
nothing
nothing
nothing
nothing
nothing
nothing
nothing
nothing
nothing
nothing
nothing
nothing
nothing
nothing
nothing

dfbasis_scf=special
def2-QZVPP-RI-JK
def2-QZVPP-RI-JK
def2-QZVPP-RI-JK
def2-QZVPP-RI-JK
def2-QZVPP-RI-JK
def2-QZVPP-RI-JK
def2-QZVPP-RI-JK
def2-QZVPP-RI-JK
def2-QZVPP-RI-JK
def2-QZVPP-RI-JK
def2-QZVPP-RI-JK
def2-QZVPP-RI-JK
def2-QZVPP-RI-JK
def2-QZVPP-RI-JK
def2-QZVPP-RI-JK
def2-QZVPP-RI-JK
def2-QZVPP-RI-JK
def2-QZVPP-RI-JK
def2-QZVPP-RI-JK
nothing
nothing
nothing
nothing
nothing
nothing
nothing
nothing
nothing
nothing
nothing
nothing
nothing
nothing
nothing
nothing
nothing
nothing
nothing
nothing
nothing
nothing
nothing
nothing
nothing
nothing
nothing
nothing
nothing
nothing
nothing
nothing
nothing
nothing
nothing
nothing
nothing
nothing
nothing
nothing
nothing
nothing
nothing
nothing
nothing
nothing
nothing
nothing
nothing
nothing
nothing
nothing
nothing
nothing
nothing
nothing
nothing
nothing
nothing
nothing
nothing
nothing
nothing
nothing
nothing
nothing
nothing
nothing
nothing
nothing
nothing
nothing
nothing
nothing
nothing
nothing
nothing
nothing
nothing
nothing
nothing
nothing
nothing
nothing
nothing
nothing
nothing
nothing
nothing
nothing
nothing
nothing
nothing
nothing
nothing
nothing
nothing
nothing
nothing
nothing
nothing
nothing
nothing
nothing
nothing
nothing
nothing
nothing
nothing
nothing
nothing
nothing
nothing
nothing
nothing
nothing
nothing
nothing
nothing
nothing
nothing
nothing
nothing
nothing
nothing
nothing
nothing
nothing
nothing
nothing
nothing
nothing
nothing
nothing
nothing
nothing
nothing
nothing
nothing
nothing
nothing
nothing
nothing
nothing
nothing
nothing

dfbasis_cor=special
def2-SVP-RI
def2-SVP-RI
def2-SVP-RI
def2-SVP-RI
def2-SVP-RI
def2-SVP-RI
def2-SVP-RI
def2-SVP-RI
def2-SVP-RI
def2-SVP-RI
def2-SVP-RI
def2-SVP-RI
def2-SVP-RI
def2-SVP-RI
def2-SVP-RI
def2-SVP-RI
def2-SVP-RI
def2-SVP-RI
def2-SVP-RI
nothing
nothing
nothing
nothing
nothing
nothing
nothing
nothing
nothing
nothing
nothing
nothing
nothing
nothing
nothing
nothing
nothing
nothing
nothing
nothing
nothing
nothing
nothing
nothing
nothing
nothing
nothing
nothing
nothing
nothing
nothing
nothing
nothing
nothing
nothing
nothing
nothing
nothing
nothing
nothing
nothing
nothing
nothing
nothing
nothing
nothing
nothing
nothing
nothing
nothing
nothing
nothing
nothing
nothing
nothing
nothing
nothing
nothing
nothing
nothing
nothing
nothing
nothing
nothing
nothing
nothing
nothing
nothing
nothing
nothing
nothing
nothing
nothing
nothing
nothing
nothing
nothing
nothing
nothing
nothing
nothing
nothing
nothing
nothing
nothing
nothing
nothing
nothing
nothing
nothing
nothing
nothing
nothing
nothing
nothing
nothing
nothing
nothing
nothing
nothing
nothing
nothing
nothing
nothing
nothing
nothing
nothing
nothing
nothing
nothing
nothing
nothing
nothing
nothing
nothing
nothing
nothing
nothing
nothing
nothing
nothing
nothing
nothing
nothing
nothing
nothing
nothing
nothing
nothing
nothing
nothing
nothing
nothing
nothing
nothing
nothing
nothing
nothing
nothing
nothing
nothing
nothing
nothing
nothing
nothing
nothing

ecp=special
none
none
none
none
none
none
none
none
none
none
none
none
none
none
none
none
none
none
none
ECP-12
ECP-12
ECP-12
ECP-12
ECP-12
ECP-12
ECP-12
ECP-12
ECP-12
ECP-12
ECP-12
ECP-12
ECP-12
ECP-12
ECP-12
ECP-12
ECP-12
ECP-12
ECP-12
ECP-12
ECP-12
ECP-12
ECP-12
ECP-12
ECP-12
ECP-12
ECP-12
ECP-12
ECP-12
ECP-12
ECP-12
ECP-12
ECP-12
ECP-12
ECP-12
ECP-12
ECP-12
ECP-12
ECP-12
ECP-12
ECP-12
ECP-12
ECP-12
ECP-12
ECP-12
ECP-12
ECP-12
ECP-12
ECP-12
ECP-12
ECP-12
ECP-12
ECP-12
ECP-12
ECP-12
ECP-12
ECP-12
ECP-12
ECP-12
ECP-12
ECP-12
ECP-12
ECP-12
ECP-12
ECP-12
ECP-12
ECP-12
ECP-12
ECP-12
ECP-12
ECP-12
ECP-12
ECP-12
ECP-12
ECP-12
ECP-12
ECP-12
ECP-12
ECP-12
ECP-12
ECP-12
ECP-12
ECP-12
ECP-12
ECP-12
ECP-12
ECP-12
ECP-12
ECP-12
ECP-12
ECP-12
ECP-12
ECP-12
ECP-12
ECP-12
ECP-12
ECP-12
ECP-12
ECP-12
ECP-12
ECP-12
ECP-12
ECP-12
ECP-12
ECP-12
ECP-12
ECP-12
ECP-12
ECP-12
ECP-12
ECP-12
ECP-12
ECP-12
ECP-12
ECP-12
ECP-12
ECP-12
ECP-12
ECP-12
ECP-12
ECP-12
ECP-12
ECP-12
ECP-12
ECP-12
ECP-12
ECP-12
ECP-12
ECP-12
ECP-12
ECP-12
ECP-12
ECP-12
ECP-12
ECP-12
ECP-12
ECP-12
ECP-12
ECP-12
ECP-12
ECP-12
ECP-12
ECP-12
ECP-12
ECP-12
ECP-12

unit=angs
geom=xyz
165
Mg5O14ECP146
O     0.00000000000    0.00000000000    0.00000000000
Mg   -2.10322620878    0.00000373010   -0.04129472389
Mg   -0.00000077520    2.10323371923   -0.04127288263
Mg    2.10323191950    0.00000373010   -0.04129472389
Mg   -0.00000077520   -2.10322440905   -0.04127288263
Mg    0.00000550943    0.00000833428   -2.12731743682
O    -2.10322913797    2.10323249699   -0.00000184672
O     2.10322899032    2.10323249699   -0.00000184672
O     2.10322899032   -2.10322563130   -0.00000184672
O    -2.10322913797   -2.10322563130   -0.00000184672
O    -2.10322637832    0.00000013655   -2.13228003377
O     0.00000097398    2.10323217703   -2.13226748721
O     2.10323174996    0.00000013655   -2.13228003377
O     0.00000097398   -2.10322595126   -2.13226748721
O    -4.20645812828    0.00000000000    0.00000000000
O     0.00000000000    4.20645812828    0.00000000000
O     4.20645812828    0.00000000000    0.00000000000
O     0.00000000000   -4.20645812828    0.00000000000
O     0.00000732117    0.00000897147   -4.23909984007
Mg   -2.10322347462    2.10323704324   -2.12732261718
Mg    2.10323465367    2.10323704324   -2.12732261718
Mg    2.10323465367   -2.10322108505   -2.12732261718
Mg   -2.10322347462   -2.10322108505   -2.12732261718
Mg   -4.20645890349    2.10323371923   -0.04127288263
Mg   -2.10322620878    4.20646185838   -0.04129472389
Mg    2.10323191950    4.20646185838   -0.04129472389
Mg    4.20645735308    2.10323371923   -0.04127288263
Mg    4.20645735308   -2.10322440905   -0.04127288263
Mg    2.10323191950   -4.20645439819   -0.04129472389
Mg   -2.10322620878   -4.20645439819   -0.04129472389
Mg   -4.20645890349   -2.10322440905   -0.04127288263
Mg   -4.20645261886    0.00000833428   -2.12731743682
Mg    0.00000550943    4.20646646256   -2.12731743682
Mg    4.20646363771    0.00000833428   -2.12731743682
Mg    0.00000550943   -4.20644979401   -2.12731743682
Mg   -2.10322174297    0.00000897147   -4.23909984007
Mg    0.00000732117    2.10323803561   -4.23909984007
Mg    2.10323638531    0.00000897147   -4.23909984007
Mg    0.00000732117   -2.10322009268   -4.23909984007
Mg   -6.30968433707    0.00000373010   -0.04129472389
Mg   -0.00000077520    6.30969184751   -0.04127288263
Mg    6.30969004779    0.00000373010   -0.04129472389
Mg   -0.00000077520   -6.30968253734   -0.04127288263
Mg   -4.20645261886    4.20646646256   -2.12731743682
Mg    4.20646363771    4.20646646256   -2.12731743682
Mg    4.20646363771   -4.20644979401   -2.12731743682
Mg   -4.20645261886   -4.20644979401   -2.12731743682
Mg   -4.20645080711    2.10323803561   -4.23909984007
Mg   -2.10322174297    4.20646709975   -4.23909984007
Mg    2.10323638531    4.20646709975   -4.23909984007
Mg    4.20646544946    2.10323803561   -4.23909984007
Mg    4.20646544946   -2.10322009268   -4.23909984007
Mg    2.10323638531   -4.20644915682   -4.23909984007
Mg   -2.10322174297   -4.20644915682   -4.23909984007
Mg   -4.20645080711   -2.10322009268   -4.23909984007
Mg    0.00000732117    0.00000897147   -6.34232890421
Mg   -6.30968160290    2.10323704324   -2.12732261718
Mg   -2.10322347462    6.30969517152   -2.12732261718
Mg    2.10323465367    6.30969517152   -2.12732261718
Mg    6.30969278195    2.10323704324   -2.12732261718
Mg    6.30969278195   -2.10322108505   -2.12732261718
Mg    2.10323465367   -6.30967921333   -2.12732261718
Mg   -2.10322347462   -6.30967921333   -2.12732261718
Mg   -6.30968160290   -2.10322108505   -2.12732261718
Mg   -2.10322174297    2.10323803561   -6.34232890421
Mg    2.10323638531    2.10323803561   -6.34232890421
Mg    2.10323638531   -2.10322009268   -6.34232890421
Mg   -2.10322174297   -2.10322009268   -6.34232890421
Mg   -6.30968433707    4.20646185838   -0.04129472389
Mg   -4.20645890349    6.30969184751   -0.04127288263
Mg    4.20645735308    6.30969184751   -0.04127288263
Mg    6.30969004779    4.20646185838   -0.04129472389
Mg    6.30969004779   -4.20645439819   -0.04129472389
Mg    4.20645735308   -6.30968253734   -0.04127288263
Mg   -4.20645890349   -6.30968253734   -0.04127288263
Mg   -6.30968433707   -4.20645439819   -0.04129472389
Mg   -6.30967987125    0.00000897147   -4.23909984007
Mg    0.00000732117    6.30969616389   -4.23909984007
Mg    6.30969451360    0.00000897147   -4.23909984007
Mg    0.00000732117   -6.30967822096   -4.23909984007
Mg   -4.20645080711    0.00000897147   -6.34232890421
Mg    0.00000732117    4.20646709975   -6.34232890421
Mg    4.20646544946    0.00000897147   -6.34232890421
Mg    0.00000732117   -4.20644915682   -6.34232890421
Mg   -8.41291703177    2.10323371923   -0.04127288263
Mg   -2.10322620878    8.41291998667   -0.04129472389
Mg    2.10323191950    8.41291998667   -0.04129472389
Mg    8.41291548137    2.10323371923   -0.04127288263
Mg    8.41291548137   -2.10322440905   -0.04127288263
Mg    2.10323191950   -8.41291252647   -0.04129472389
Mg   -2.10322620878   -8.41291252647   -0.04129472389
Mg   -8.41291703177   -2.10322440905   -0.04127288263
Mg   -8.41291074714    0.00000833428   -2.12731743682
Mg    0.00000550943    8.41292459085   -2.12731743682
Mg    8.41292176600    0.00000833428   -2.12731743682
Mg    0.00000550943   -8.41290792229   -2.12731743682
Mg   -6.30967987125    4.20646709975   -4.23909984007
Mg   -4.20645080711    6.30969616389   -4.23909984007
Mg    4.20646544946    6.30969616389   -4.23909984007
Mg    6.30969451360    4.20646709975   -4.23909984007
Mg    6.30969451360   -4.20644915682   -4.23909984007
Mg    4.20646544946   -6.30967822096   -4.23909984007
Mg   -4.20645080711   -6.30967822096   -4.23909984007
Mg   -6.30967987125   -4.20644915682   -4.23909984007
Mg   -4.20645080711    4.20646709975   -6.34232890421
Mg    4.20646544946    4.20646709975   -6.34232890421
Mg    4.20646544946   -4.20644915682   -6.34232890421
Mg   -4.20645080711   -4.20644915682   -6.34232890421
Mg   -2.10322174297    0.00000897147   -8.44555796836
Mg    0.00000732117    2.10323803561   -8.44555796836
Mg    2.10323638531    0.00000897147   -8.44555796836
Mg    0.00000732117   -2.10322009268   -8.44555796836
Mg   -6.30968160290    6.30969517152   -2.12732261718
Mg    6.30969278195    6.30969517152   -2.12732261718
Mg    6.30969278195   -6.30967921333   -2.12732261718
Mg   -6.30968160290   -6.30967921333   -2.12732261718
Mg   -6.30967987125    2.10323803561   -6.34232890421
Mg   -2.10322174297    6.30969616389   -6.34232890421
Mg    2.10323638531    6.30969616389   -6.34232890421
Mg    6.30969451360    2.10323803561   -6.34232890421
Mg    6.30969451360   -2.10322009268   -6.34232890421
Mg    2.10323638531   -6.30967822096   -6.34232890421
Mg   -2.10322174297   -6.30967822096   -6.34232890421
Mg   -6.30967987125   -2.10322009268   -6.34232890421
Mg   -8.41291074714    4.20646646256   -2.12731743682
Mg   -4.20645261886    8.41292459085   -2.12731743682
Mg    4.20646363771    8.41292459085   -2.12731743682
Mg    8.41292176600    4.20646646256   -2.12731743682
Mg    8.41292176600   -4.20644979401   -2.12731743682
Mg    4.20646363771   -8.41290792229   -2.12731743682
Mg   -4.20645261886   -8.41290792229   -2.12731743682
Mg   -8.41291074714   -4.20644979401   -2.12731743682
Mg   -8.41290893540    2.10323803561   -4.23909984007
Mg   -2.10322174297    8.41292522803   -4.23909984007
Mg    2.10323638531    8.41292522803   -4.23909984007
Mg    8.41292357774    2.10323803561   -4.23909984007
Mg    8.41292357774   -2.10322009268   -4.23909984007
Mg    2.10323638531   -8.41290728510   -4.23909984007
Mg   -2.10322174297   -8.41290728510   -4.23909984007
Mg   -8.41290893540   -2.10322009268   -4.23909984007
Mg   -4.20645080711    2.10323803561   -8.44555796836
Mg   -2.10322174297    4.20646709975   -8.44555796836
Mg    2.10323638531    4.20646709975   -8.44555796836
Mg    4.20646544946    2.10323803561   -8.44555796836
Mg    4.20646544946   -2.10322009268   -8.44555796836
Mg    2.10323638531   -4.20644915682   -8.44555796836
Mg   -2.10322174297   -4.20644915682   -8.44555796836
Mg   -4.20645080711   -2.10322009268   -8.44555796836
Mg  -10.51614246535    0.00000373010   -0.04129472389
Mg   -0.00000077520   10.51614997580   -0.04127288263
Mg   10.51614817607    0.00000373010   -0.04129472389
Mg   -0.00000077520  -10.51614066562   -0.04127288263
Mg    0.00000732117    0.00000897147  -10.54878703250
Mg  -10.51613973119    2.10323704324   -2.12732261718
Mg   -2.10322347462   10.51615329981   -2.12732261718
Mg    2.10323465367   10.51615329981   -2.12732261718
Mg   10.51615091024    2.10323704324   -2.12732261718
Mg   10.51615091024   -2.10322108505   -2.12732261718
Mg    2.10323465367  -10.51613734162   -2.12732261718
Mg   -2.10322347462  -10.51613734162   -2.12732261718
Mg  -10.51613973119   -2.10322108505   -2.12732261718
Mg   -2.10322174297    2.10323803561  -10.54878703250
Mg    2.10323638531    2.10323803561  -10.54878703250
Mg    2.10323638531   -2.10322009268  -10.54878703250
Mg   -2.10322174297   -2.10322009268  -10.54878703250

ghost=serialno
1

qmmm=Amber
pointcharges
10070
     -2.10322347462    2.10323704324   -2.12732261718    2.00000000000
      2.10323465367    2.10323704324   -2.12732261718    2.00000000000
      2.10323465367   -2.10322108505   -2.12732261718    2.00000000000
     -2.10322347462   -2.10322108505   -2.12732261718    2.00000000000
     -4.20645890349    2.10323371923   -0.04127288263    2.00000000000
     -2.10322620878    4.20646185838   -0.04129472389    2.00000000000
      2.10323191950    4.20646185838   -0.04129472389    2.00000000000
      4.20645735308    2.10323371923   -0.04127288263    2.00000000000
      4.20645735308   -2.10322440905   -0.04127288263    2.00000000000
      2.10323191950   -4.20645439819   -0.04129472389    2.00000000000
     -2.10322620878   -4.20645439819   -0.04129472389    2.00000000000
     -4.20645890349   -2.10322440905   -0.04127288263    2.00000000000
     -4.20645261886    0.00000833428   -2.12731743682    2.00000000000
      0.00000550943    4.20646646256   -2.12731743682    2.00000000000
      4.20646363771    0.00000833428   -2.12731743682    2.00000000000
      0.00000550943   -4.20644979401   -2.12731743682    2.00000000000
     -2.10322174297    0.00000897147   -4.23909984007    2.00000000000
      0.00000732117    2.10323803561   -4.23909984007    2.00000000000
      2.10323638531    0.00000897147   -4.23909984007    2.00000000000
      0.00000732117   -2.10322009268   -4.23909984007    2.00000000000
     -4.20645715431    2.10323217703   -2.13226748721   -2.00000000000
     -2.10322637832    4.20645826484   -2.13228003377   -2.00000000000
      2.10323174996    4.20645826484   -2.13228003377   -2.00000000000
      4.20645910226    2.10323217703   -2.13226748721   -2.00000000000
      4.20645910226   -2.10322595126   -2.13226748721   -2.00000000000
      2.10323174996   -4.20645799173   -2.13228003377   -2.00000000000
     -2.10322637832   -4.20645799173   -2.13228003377   -2.00000000000
     -4.20645715431   -2.10322595126   -2.13226748721   -2.00000000000
     -2.10322174297    2.10323803561   -4.23909984007   -2.00000000000
      2.10323638531    2.10323803561   -4.23909984007   -2.00000000000
      2.10323638531   -2.10322009268   -4.23909984007   -2.00000000000
     -2.10322174297   -2.10322009268   -4.23909984007   -2.00000000000
     -4.20645812828    4.20645812828    0.00000000000   -2.00000000000
      4.20645812828    4.20645812828    0.00000000000   -2.00000000000
      4.20645812828   -4.20645812828    0.00000000000   -2.00000000000
     -4.20645812828   -4.20645812828    0.00000000000   -2.00000000000
     -4.20645080711    0.00000897147   -4.23909984007   -2.00000000000
      0.00000732117    4.20646709975   -4.23909984007   -2.00000000000
      4.20646544946    0.00000897147   -4.23909984007   -2.00000000000
      0.00000732117   -4.20644915682   -4.23909984007   -2.00000000000
     -6.30968433707    0.00000373010   -0.04129472389    2.00000000000
     -0.00000077520    6.30969184751   -0.04127288263    2.00000000000
      6.30969004779    0.00000373010   -0.04129472389    2.00000000000
     -0.00000077520   -6.30968253734   -0.04127288263    2.00000000000
     -4.20645261886    4.20646646256   -2.12731743682    2.00000000000
      4.20646363771    4.20646646256   -2.12731743682    2.00000000000
      4.20646363771   -4.20644979401   -2.12731743682    2.00000000000
     -4.20645261886   -4.20644979401   -2.12731743682    2.00000000000
     -4.20645080711    2.10323803561   -4.23909984007    2.00000000000
     -2.10322174297    4.20646709975   -4.23909984007    2.00000000000
      2.10323638531    4.20646709975   -4.23909984007    2.00000000000
      4.20646544946    2.10323803561   -4.23909984007    2.00000000000
      4.20646544946   -2.10322009268   -4.23909984007    2.00000000000
      2.10323638531   -4.20644915682   -4.23909984007    2.00000000000
     -2.10322174297   -4.20644915682   -4.23909984007    2.00000000000
     -4.20645080711   -2.10322009268   -4.23909984007    2.00000000000
      0.00000732117    0.00000897147   -6.34232890421    2.00000000000
     -6.30968726625    2.10323249699   -0.00000184672   -2.00000000000
     -2.10322913797    6.30969062527   -0.00000184672   -2.00000000000
      2.10322899032    6.30969062527   -0.00000184672   -2.00000000000
      6.30968711860    2.10323249699   -0.00000184672   -2.00000000000
      6.30968711860   -2.10322563130   -0.00000184672   -2.00000000000
      2.10322899032   -6.30968375958   -0.00000184672   -2.00000000000
     -2.10322913797   -6.30968375958   -0.00000184672   -2.00000000000
     -6.30968726625   -2.10322563130   -0.00000184672   -2.00000000000
     -6.30968450660    0.00000013655   -2.13228003377   -2.00000000000
      0.00000097398    6.30969030531   -2.13226748721   -2.00000000000
      6.30968987825    0.00000013655   -2.13228003377   -2.00000000000
      0.00000097398   -6.30968407954   -2.13226748721   -2.00000000000
     -2.10322174297    0.00000897147   -6.34232890421   -2.00000000000
      0.00000732117    2.10323803561   -6.34232890421   -2.00000000000
      2.10323638531    0.00000897147   -6.34232890421   -2.00000000000
      0.00000732117   -2.10322009268   -6.34232890421   -2.00000000000
     -6.30968160290    2.10323704324   -2.12732261718    2.00000000000
     -2.10322347462    6.30969517152   -2.12732261718    2.00000000000
      2.10323465367    6.30969517152   -2.12732261718    2.00000000000
      6.30969278195    2.10323704324   -2.12732261718    2.00000000000
      6.30969278195   -2.10322108505   -2.12732261718    2.00000000000
      2.10323465367   -6.30967921333   -2.12732261718    2.00000000000
     -2.10322347462   -6.30967921333   -2.12732261718    2.00000000000
     -6.30968160290   -2.10322108505   -2.12732261718    2.00000000000
     -2.10322174297    2.10323803561   -6.34232890421    2.00000000000
      2.10323638531    2.10323803561   -6.34232890421    2.00000000000
      2.10323638531   -2.10322009268   -6.34232890421    2.00000000000
     -2.10322174297   -2.10322009268   -6.34232890421    2.00000000000
     -4.20645080711    4.20646709975   -4.23909984007   -2.00000000000
      4.20646544946    4.20646709975   -4.23909984007   -2.00000000000
      4.20646544946   -4.20644915682   -4.23909984007   -2.00000000000
     -4.20645080711   -4.20644915682   -4.23909984007   -2.00000000000
     -6.30968433707    4.20646185838   -0.04129472389    2.00000000000
     -4.20645890349    6.30969184751   -0.04127288263    2.00000000000
      4.20645735308    6.30969184751   -0.04127288263    2.00000000000
      6.30969004779    4.20646185838   -0.04129472389    2.00000000000
      6.30969004779   -4.20645439819   -0.04129472389    2.00000000000
      4.20645735308   -6.30968253734   -0.04127288263    2.00000000000
     -4.20645890349   -6.30968253734   -0.04127288263    2.00000000000
     -6.30968433707   -4.20645439819   -0.04129472389    2.00000000000
     -6.30967987125    0.00000897147   -4.23909984007    2.00000000000
      0.00000732117    6.30969616389   -4.23909984007    2.00000000000
      6.30969451360    0.00000897147   -4.23909984007    2.00000000000
      0.00000732117   -6.30967822096   -4.23909984007    2.00000000000
     -4.20645080711    0.00000897147   -6.34232890421    2.00000000000
      0.00000732117    4.20646709975   -6.34232890421    2.00000000000
      4.20646544946    0.00000897147   -6.34232890421    2.00000000000
      0.00000732117   -4.20644915682   -6.34232890421    2.00000000000
     -6.30968450660    4.20645826484   -2.13228003377   -2.00000000000
     -4.20645715431    6.30969030531   -2.13226748721   -2.00000000000
      4.20645910226    6.30969030531   -2.13226748721   -2.00000000000
      6.30968987825    4.20645826484   -2.13228003377   -2.00000000000
      6.30968987825   -4.20645799173   -2.13228003377   -2.00000000000
      4.20645910226   -6.30968407954   -2.13226748721   -2.00000000000
     -4.20645715431   -6.30968407954   -2.13226748721   -2.00000000000
     -6.30968450660   -4.20645799173   -2.13228003377   -2.00000000000
     -6.30967987125    2.10323803561   -4.23909984007   -2.00000000000
     -2.10322174297    6.30969616389   -4.23909984007   -2.00000000000
      2.10323638531    6.30969616389   -4.23909984007   -2.00000000000
      6.30969451360    2.10323803561   -4.23909984007   -2.00000000000
      6.30969451360   -2.10322009268   -4.23909984007   -2.00000000000
      2.10323638531   -6.30967822096   -4.23909984007   -2.00000000000
     -2.10322174297   -6.30967822096   -4.23909984007   -2.00000000000
     -6.30967987125   -2.10322009268   -4.23909984007   -2.00000000000
     -4.20645080711    2.10323803561   -6.34232890421   -2.00000000000
     -2.10322174297    4.20646709975   -6.34232890421   -2.00000000000
      2.10323638531    4.20646709975   -6.34232890421   -2.00000000000
      4.20646544946    2.10323803561   -6.34232890421   -2.00000000000
      4.20646544946   -2.10322009268   -6.34232890421   -2.00000000000
      2.10323638531   -4.20644915682   -6.34232890421   -2.00000000000
     -2.10322174297   -4.20644915682   -6.34232890421   -2.00000000000
     -4.20645080711   -2.10322009268   -6.34232890421   -2.00000000000
     -8.41291625657    0.00000000000    0.00000000000   -2.00000000000
      0.00000000000    8.41291625657    0.00000000000   -2.00000000000
      8.41291625657    0.00000000000    0.00000000000   -2.00000000000
      0.00000000000   -8.41291625657    0.00000000000   -2.00000000000
      0.00000732117    0.00000897147   -8.44555796836   -2.00000000000
     -8.41291703177    2.10323371923   -0.04127288263    2.00000000000
     -2.10322620878    8.41291998667   -0.04129472389    2.00000000000
      2.10323191950    8.41291998667   -0.04129472389    2.00000000000
      8.41291548137    2.10323371923   -0.04127288263    2.00000000000
      8.41291548137   -2.10322440905   -0.04127288263    2.00000000000
      2.10323191950   -8.41291252647   -0.04129472389    2.00000000000
     -2.10322620878   -8.41291252647   -0.04129472389    2.00000000000
     -8.41291703177   -2.10322440905   -0.04127288263    2.00000000000
     -8.41291074714    0.00000833428   -2.12731743682    2.00000000000
      0.00000550943    8.41292459085   -2.12731743682    2.00000000000
      8.41292176600    0.00000833428   -2.12731743682    2.00000000000
      0.00000550943   -8.41290792229   -2.12731743682    2.00000000000
     -6.30967987125    4.20646709975   -4.23909984007    2.00000000000
     -4.20645080711    6.30969616389   -4.23909984007    2.00000000000
      4.20646544946    6.30969616389   -4.23909984007    2.00000000000
      6.30969451360    4.20646709975   -4.23909984007    2.00000000000
      6.30969451360   -4.20644915682   -4.23909984007    2.00000000000
      4.20646544946   -6.30967822096   -4.23909984007    2.00000000000
     -4.20645080711   -6.30967822096   -4.23909984007    2.00000000000
     -6.30967987125   -4.20644915682   -4.23909984007    2.00000000000
     -4.20645080711    4.20646709975   -6.34232890421    2.00000000000
      4.20646544946    4.20646709975   -6.34232890421    2.00000000000
      4.20646544946   -4.20644915682   -6.34232890421    2.00000000000
     -4.20645080711   -4.20644915682   -6.34232890421    2.00000000000
     -2.10322174297    0.00000897147   -8.44555796836    2.00000000000
      0.00000732117    2.10323803561   -8.44555796836    2.00000000000
      2.10323638531    0.00000897147   -8.44555796836    2.00000000000
      0.00000732117   -2.10322009268   -8.44555796836    2.00000000000
     -6.30968726625    6.30969062527   -0.00000184672   -2.00000000000
      6.30968711860    6.30969062527   -0.00000184672   -2.00000000000
      6.30968711860   -6.30968375958   -0.00000184672   -2.00000000000
     -6.30968726625   -6.30968375958   -0.00000184672   -2.00000000000
     -8.41291528259    2.10323217703   -2.13226748721   -2.00000000000
     -2.10322637832    8.41291639312   -2.13228003377   -2.00000000000
      2.10323174996    8.41291639312   -2.13228003377   -2.00000000000
      8.41291723054    2.10323217703   -2.13226748721   -2.00000000000
      8.41291723054   -2.10322595126   -2.13226748721   -2.00000000000
      2.10323174996   -8.41291612001   -2.13228003377   -2.00000000000
     -2.10322637832   -8.41291612001   -2.13228003377   -2.00000000000
     -8.41291528259   -2.10322595126   -2.13226748721   -2.00000000000
     -6.30967987125    0.00000897147   -6.34232890421   -2.00000000000
      0.00000732117    6.30969616389   -6.34232890421   -2.00000000000
      6.30969451360    0.00000897147   -6.34232890421   -2.00000000000
      0.00000732117   -6.30967822096   -6.34232890421   -2.00000000000
     -2.10322174297    2.10323803561   -8.44555796836   -2.00000000000
      2.10323638531    2.10323803561   -8.44555796836   -2.00000000000
      2.10323638531   -2.10322009268   -8.44555796836   -2.00000000000
     -2.10322174297   -2.10322009268   -8.44555796836   -2.00000000000
     -6.30968160290    6.30969517152   -2.12732261718    2.00000000000
      6.30969278195    6.30969517152   -2.12732261718    2.00000000000
      6.30969278195   -6.30967921333   -2.12732261718    2.00000000000
     -6.30968160290   -6.30967921333   -2.12732261718    2.00000000000
     -6.30967987125    2.10323803561   -6.34232890421    2.00000000000
     -2.10322174297    6.30969616389   -6.34232890421    2.00000000000
      2.10323638531    6.30969616389   -6.34232890421    2.00000000000
      6.30969451360    2.10323803561   -6.34232890421    2.00000000000
      6.30969451360   -2.10322009268   -6.34232890421    2.00000000000
      2.10323638531   -6.30967822096   -6.34232890421    2.00000000000
     -2.10322174297   -6.30967822096   -6.34232890421    2.00000000000
     -6.30967987125   -2.10322009268   -6.34232890421    2.00000000000
     -8.41291625657    4.20645812828    0.00000000000   -2.00000000000
     -4.20645812828    8.41291625657    0.00000000000   -2.00000000000
      4.20645812828    8.41291625657    0.00000000000   -2.00000000000
      8.41291625657    4.20645812828    0.00000000000   -2.00000000000
      8.41291625657   -4.20645812828    0.00000000000   -2.00000000000
      4.20645812828   -8.41291625657    0.00000000000   -2.00000000000
     -4.20645812828   -8.41291625657    0.00000000000   -2.00000000000
     -8.41291625657   -4.20645812828    0.00000000000   -2.00000000000
     -8.41290893540    0.00000897147   -4.23909984007   -2.00000000000
      0.00000732117    8.41292522803   -4.23909984007   -2.00000000000
      8.41292357774    0.00000897147   -4.23909984007   -2.00000000000
      0.00000732117   -8.41290728510   -4.23909984007   -2.00000000000
     -4.20645080711    0.00000897147   -8.44555796836   -2.00000000000
      0.00000732117    4.20646709975   -8.44555796836   -2.00000000000
      4.20646544946    0.00000897147   -8.44555796836   -2.00000000000
      0.00000732117   -4.20644915682   -8.44555796836   -2.00000000000
     -8.41291074714    4.20646646256   -2.12731743682    2.00000000000
     -4.20645261886    8.41292459085   -2.12731743682    2.00000000000
      4.20646363771    8.41292459085   -2.12731743682    2.00000000000
      8.41292176600    4.20646646256   -2.12731743682    2.00000000000
      8.41292176600   -4.20644979401   -2.12731743682    2.00000000000
      4.20646363771   -8.41290792229   -2.12731743682    2.00000000000
     -4.20645261886   -8.41290792229   -2.12731743682    2.00000000000
     -8.41291074714   -4.20644979401   -2.12731743682    2.00000000000
     -8.41290893540    2.10323803561   -4.23909984007    2.00000000000
     -2.10322174297    8.41292522803   -4.23909984007    2.00000000000
      2.10323638531    8.41292522803   -4.23909984007    2.00000000000
      8.41292357774    2.10323803561   -4.23909984007    2.00000000000
      8.41292357774   -2.10322009268   -4.23909984007    2.00000000000
      2.10323638531   -8.41290728510   -4.23909984007    2.00000000000
     -2.10322174297   -8.41290728510   -4.23909984007    2.00000000000
     -8.41290893540   -2.10322009268   -4.23909984007    2.00000000000
     -4.20645080711    2.10323803561   -8.44555796836    2.00000000000
     -2.10322174297    4.20646709975   -8.44555796836    2.00000000000
      2.10323638531    4.20646709975   -8.44555796836    2.00000000000
      4.20646544946    2.10323803561   -8.44555796836    2.00000000000
      4.20646544946   -2.10322009268   -8.44555796836    2.00000000000
      2.10323638531   -4.20644915682   -8.44555796836    2.00000000000
     -2.10322174297   -4.20644915682   -8.44555796836    2.00000000000
     -4.20645080711   -2.10322009268   -8.44555796836    2.00000000000
    -10.51614246535    0.00000373010   -0.04129472389    2.00000000000
     -0.00000077520   10.51614997580   -0.04127288263    2.00000000000
     10.51614817607    0.00000373010   -0.04129472389    2.00000000000
     -0.00000077520  -10.51614066562   -0.04127288263    2.00000000000
      0.00000732117    0.00000897147  -10.54878703250    2.00000000000
    -10.51614539454    2.10323249699   -0.00000184672   -2.00000000000
     -2.10322913797   10.51614875355   -0.00000184672   -2.00000000000
      2.10322899032   10.51614875355   -0.00000184672   -2.00000000000
     10.51614524688    2.10323249699   -0.00000184672   -2.00000000000
     10.51614524688   -2.10322563130   -0.00000184672   -2.00000000000
      2.10322899032  -10.51614188787   -0.00000184672   -2.00000000000
     -2.10322913797  -10.51614188787   -0.00000184672   -2.00000000000
    -10.51614539454   -2.10322563130   -0.00000184672   -2.00000000000
    -10.51614263489    0.00000013655   -2.13228003377   -2.00000000000
      0.00000097398   10.51614843360   -2.13226748721   -2.00000000000
     10.51614800653    0.00000013655   -2.13228003377   -2.00000000000
      0.00000097398  -10.51614220782   -2.13226748721   -2.00000000000
     -2.10322174297    0.00000897147  -10.54878703250   -2.00000000000
      0.00000732117    2.10323803561  -10.54878703250   -2.00000000000
      2.10323638531    0.00000897147  -10.54878703250   -2.00000000000
      0.00000732117   -2.10322009268  -10.54878703250   -2.00000000000
    -10.51613973119    2.10323704324   -2.12732261718    2.00000000000
     -2.10322347462   10.51615329981   -2.12732261718    2.00000000000
      2.10323465367   10.51615329981   -2.12732261718    2.00000000000
     10.51615091024    2.10323704324   -2.12732261718    2.00000000000
     10.51615091024   -2.10322108505   -2.12732261718    2.00000000000
      2.10323465367  -10.51613734162   -2.12732261718    2.00000000000
     -2.10322347462  -10.51613734162   -2.12732261718    2.00000000000
    -10.51613973119   -2.10322108505   -2.12732261718    2.00000000000
     -2.10322174297    2.10323803561  -10.54878703250    2.00000000000
      2.10323638531    2.10323803561  -10.54878703250    2.00000000000
      2.10323638531   -2.10322009268  -10.54878703250    2.00000000000
     -2.10322174297   -2.10322009268  -10.54878703250    2.00000000000
     -6.30967987125    6.30969616389   -4.23909984007   -2.00000000000
      6.30969451360    6.30969616389   -4.23909984007   -2.00000000000
      6.30969451360   -6.30967822096   -4.23909984007   -2.00000000000
     -6.30967987125   -6.30967822096   -4.23909984007   -2.00000000000
     -6.30967987125    4.20646709975   -6.34232890421   -2.00000000000
     -4.20645080711    6.30969616389   -6.34232890421   -2.00000000000
      4.20646544946    6.30969616389   -6.34232890421   -2.00000000000
      6.30969451360    4.20646709975   -6.34232890421   -2.00000000000
      6.30969451360   -4.20644915682   -6.34232890421   -2.00000000000
      4.20646544946   -6.30967822096   -6.34232890421   -2.00000000000
     -4.20645080711   -6.30967822096   -6.34232890421   -2.00000000000
     -6.30967987125   -4.20644915682   -6.34232890421   -2.00000000000
     -8.41290893540    4.20646709975   -4.23909984007   -2.00000000000
     -4.20645080711    8.41292522803   -4.23909984007   -2.00000000000
      4.20646544946    8.41292522803   -4.23909984007   -2.00000000000
      8.41292357774    4.20646709975   -4.23909984007   -2.00000000000
      8.41292357774   -4.20644915682   -4.23909984007   -2.00000000000
      4.20646544946   -8.41290728510   -4.23909984007   -2.00000000000
     -4.20645080711   -8.41290728510   -4.23909984007   -2.00000000000
     -8.41290893540   -4.20644915682   -4.23909984007   -2.00000000000
     -4.20645080711    4.20646709975   -8.44555796836   -2.00000000000
      4.20646544946    4.20646709975   -8.44555796836   -2.00000000000
      4.20646544946   -4.20644915682   -8.44555796836   -2.00000000000
     -4.20645080711   -4.20644915682   -8.44555796836   -2.00000000000
     -8.41291703177    6.30969184751   -0.04127288263    2.00000000000
     -6.30968433707    8.41291998667   -0.04129472389    2.00000000000
      6.30969004779    8.41291998667   -0.04129472389    2.00000000000
      8.41291548137    6.30969184751   -0.04127288263    2.00000000000
      8.41291548137   -6.30968253734   -0.04127288263    2.00000000000
      6.30969004779   -8.41291252647   -0.04129472389    2.00000000000
     -6.30968433707   -8.41291252647   -0.04129472389    2.00000000000
     -8.41291703177   -6.30968253734   -0.04127288263    2.00000000000
     -8.41290893540    0.00000897147   -6.34232890421    2.00000000000
      0.00000732117    8.41292522803   -6.34232890421    2.00000000000
      8.41292357774    0.00000897147   -6.34232890421    2.00000000000
      0.00000732117   -8.41290728510   -6.34232890421    2.00000000000
     -6.30967987125    0.00000897147   -8.44555796836    2.00000000000
      0.00000732117    6.30969616389   -8.44555796836    2.00000000000
      6.30969451360    0.00000897147   -8.44555796836    2.00000000000
      0.00000732117   -6.30967822096   -8.44555796836    2.00000000000
     -8.41291528259    6.30969030531   -2.13226748721   -2.00000000000
     -6.30968450660    8.41291639312   -2.13228003377   -2.00000000000
      6.30968987825    8.41291639312   -2.13228003377   -2.00000000000
      8.41291723054    6.30969030531   -2.13226748721   -2.00000000000
      8.41291723054   -6.30968407954   -2.13226748721   -2.00000000000
      6.30968987825   -8.41291612001   -2.13228003377   -2.00000000000
     -6.30968450660   -8.41291612001   -2.13228003377   -2.00000000000
     -8.41291528259   -6.30968407954   -2.13226748721   -2.00000000000
     -8.41290893540    2.10323803561   -6.34232890421   -2.00000000000
     -2.10322174297    8.41292522803   -6.34232890421   -2.00000000000
      2.10323638531    8.41292522803   -6.34232890421   -2.00000000000
      8.41292357774    2.10323803561   -6.34232890421   -2.00000000000
      8.41292357774   -2.10322009268   -6.34232890421   -2.00000000000
      2.10323638531   -8.41290728510   -6.34232890421   -2.00000000000
     -2.10322174297   -8.41290728510   -6.34232890421   -2.00000000000
     -8.41290893540   -2.10322009268   -6.34232890421   -2.00000000000
     -6.30967987125    2.10323803561   -8.44555796836   -2.00000000000
     -2.10322174297    6.30969616389   -8.44555796836   -2.00000000000
      2.10323638531    6.30969616389   -8.44555796836   -2.00000000000
      6.30969451360    2.10323803561   -8.44555796836   -2.00000000000
      6.30969451360   -2.10322009268   -8.44555796836   -2.00000000000
      2.10323638531   -6.30967822096   -8.44555796836   -2.00000000000
     -2.10322174297   -6.30967822096   -8.44555796836   -2.00000000000
     -6.30967987125   -2.10322009268   -8.44555796836   -2.00000000000
     -6.30967987125    6.30969616389   -6.34232890421    2.00000000000
      6.30969451360    6.30969616389   -6.34232890421    2.00000000000
      6.30969451360   -6.30967822096   -6.34232890421    2.00000000000
     -6.30967987125   -6.30967822096   -6.34232890421    2.00000000000
    -10.51614246535    4.20646185838   -0.04129472389    2.00000000000
     -4.20645890349   10.51614997580   -0.04127288263    2.00000000000
      4.20645735308   10.51614997580   -0.04127288263    2.00000000000
     10.51614817607    4.20646185838   -0.04129472389    2.00000000000
     10.51614817607   -4.20645439819   -0.04129472389    2.00000000000
      4.20645735308  -10.51614066562   -0.04127288263    2.00000000000
     -4.20645890349  -10.51614066562   -0.04127288263    2.00000000000
    -10.51614246535   -4.20645439819   -0.04129472389    2.00000000000
    -10.51613799954    0.00000897147   -4.23909984007    2.00000000000
     -8.41290893540    6.30969616389   -4.23909984007    2.00000000000
     -6.30967987125    8.41292522803   -4.23909984007    2.00000000000
      0.00000732117   10.51615429218   -4.23909984007    2.00000000000
      6.30969451360    8.41292522803   -4.23909984007    2.00000000000
      8.41292357774    6.30969616389   -4.23909984007    2.00000000000
     10.51615264188    0.00000897147   -4.23909984007    2.00000000000
      8.41292357774   -6.30967822096   -4.23909984007    2.00000000000
      6.30969451360   -8.41290728510   -4.23909984007    2.00000000000
      0.00000732117  -10.51613634924   -4.23909984007    2.00000000000
     -6.30967987125   -8.41290728510   -4.23909984007    2.00000000000
     -8.41290893540   -6.30967822096   -4.23909984007    2.00000000000
     -8.41290893540    4.20646709975   -6.34232890421    2.00000000000
     -4.20645080711    8.41292522803   -6.34232890421    2.00000000000
      4.20646544946    8.41292522803   -6.34232890421    2.00000000000
      8.41292357774    4.20646709975   -6.34232890421    2.00000000000
      8.41292357774   -4.20644915682   -6.34232890421    2.00000000000
      4.20646544946   -8.41290728510   -6.34232890421    2.00000000000
     -4.20645080711   -8.41290728510   -6.34232890421    2.00000000000
     -8.41290893540   -4.20644915682   -6.34232890421    2.00000000000
     -6.30967987125    4.20646709975   -8.44555796836    2.00000000000
     -4.20645080711    6.30969616389   -8.44555796836    2.00000000000
      4.20646544946    6.30969616389   -8.44555796836    2.00000000000
      6.30969451360    4.20646709975   -8.44555796836    2.00000000000
      6.30969451360   -4.20644915682   -8.44555796836    2.00000000000
      4.20646544946   -6.30967822096   -8.44555796836    2.00000000000
     -4.20645080711   -6.30967822096   -8.44555796836    2.00000000000
     -6.30967987125   -4.20644915682   -8.44555796836    2.00000000000
     -4.20645080711    0.00000897147  -10.54878703250    2.00000000000
      0.00000732117    4.20646709975  -10.54878703250    2.00000000000
      4.20646544946    0.00000897147  -10.54878703250    2.00000000000
      0.00000732117   -4.20644915682  -10.54878703250    2.00000000000
    -10.51614263489    4.20645826484   -2.13228003377   -2.00000000000
     -4.20645715431   10.51614843360   -2.13226748721   -2.00000000000
      4.20645910226   10.51614843360   -2.13226748721   -2.00000000000
     10.51614800653    4.20645826484   -2.13228003377   -2.00000000000
     10.51614800653   -4.20645799173   -2.13228003377   -2.00000000000
      4.20645910226  -10.51614220782   -2.13226748721   -2.00000000000
     -4.20645715431  -10.51614220782   -2.13226748721   -2.00000000000
    -10.51614263489   -4.20645799173   -2.13228003377   -2.00000000000
    -10.51613799954    2.10323803561   -4.23909984007   -2.00000000000
     -2.10322174297   10.51615429218   -4.23909984007   -2.00000000000
      2.10323638531   10.51615429218   -4.23909984007   -2.00000000000
     10.51615264188    2.10323803561   -4.23909984007   -2.00000000000
     10.51615264188   -2.10322009268   -4.23909984007   -2.00000000000
      2.10323638531  -10.51613634924   -4.23909984007   -2.00000000000
     -2.10322174297  -10.51613634924   -4.23909984007   -2.00000000000
    -10.51613799954   -2.10322009268   -4.23909984007   -2.00000000000
     -4.20645080711    2.10323803561  -10.54878703250   -2.00000000000
     -2.10322174297    4.20646709975  -10.54878703250   -2.00000000000
      2.10323638531    4.20646709975  -10.54878703250   -2.00000000000
      4.20646544946    2.10323803561  -10.54878703250   -2.00000000000
      4.20646544946   -2.10322009268  -10.54878703250   -2.00000000000
      2.10323638531   -4.20644915682  -10.54878703250   -2.00000000000
     -2.10322174297   -4.20644915682  -10.54878703250   -2.00000000000
     -4.20645080711   -2.10322009268  -10.54878703250   -2.00000000000
     -8.41291625657    8.41291625657    0.00000000000   -2.00000000000
      8.41291625657    8.41291625657    0.00000000000   -2.00000000000
      8.41291625657   -8.41291625657    0.00000000000   -2.00000000000
     -8.41291625657   -8.41291625657    0.00000000000   -2.00000000000
     -8.41290893540    0.00000897147   -8.44555796836   -2.00000000000
      0.00000732117    8.41292522803   -8.44555796836   -2.00000000000
      8.41292357774    0.00000897147   -8.44555796836   -2.00000000000
      0.00000732117   -8.41290728510   -8.44555796836   -2.00000000000
     -8.41291074714    8.41292459085   -2.12731743682    2.00000000000
      8.41292176600    8.41292459085   -2.12731743682    2.00000000000
      8.41292176600   -8.41290792229   -2.12731743682    2.00000000000
     -8.41291074714   -8.41290792229   -2.12731743682    2.00000000000
    -10.51613799954    4.20646709975   -4.23909984007    2.00000000000
     -4.20645080711   10.51615429218   -4.23909984007    2.00000000000
      4.20646544946   10.51615429218   -4.23909984007    2.00000000000
     10.51615264188    4.20646709975   -4.23909984007    2.00000000000
     10.51615264188   -4.20644915682   -4.23909984007    2.00000000000
      4.20646544946  -10.51613634924   -4.23909984007    2.00000000000
     -4.20645080711  -10.51613634924   -4.23909984007    2.00000000000
    -10.51613799954   -4.20644915682   -4.23909984007    2.00000000000
     -8.41290893540    2.10323803561   -8.44555796836    2.00000000000
     -2.10322174297    8.41292522803   -8.44555796836    2.00000000000
      2.10323638531    8.41292522803   -8.44555796836    2.00000000000
      8.41292357774    2.10323803561   -8.44555796836    2.00000000000
      8.41292357774   -2.10322009268   -8.44555796836    2.00000000000
      2.10323638531   -8.41290728510   -8.44555796836    2.00000000000
     -2.10322174297   -8.41290728510   -8.44555796836    2.00000000000
     -8.41290893540   -2.10322009268   -8.44555796836    2.00000000000
     -4.20645080711    4.20646709975  -10.54878703250    2.00000000000
      4.20646544946    4.20646709975  -10.54878703250    2.00000000000
      4.20646544946   -4.20644915682  -10.54878703250    2.00000000000
     -4.20645080711   -4.20644915682  -10.54878703250    2.00000000000
    -10.51614539454    6.30969062527   -0.00000184672   -2.00000000000
     -6.30968726625   10.51614875355   -0.00000184672   -2.00000000000
      6.30968711860   10.51614875355   -0.00000184672   -2.00000000000
     10.51614524688    6.30969062527   -0.00000184672   -2.00000000000
     10.51614524688   -6.30968375958   -0.00000184672   -2.00000000000
      6.30968711860  -10.51614188787   -0.00000184672   -2.00000000000
     -6.30968726625  -10.51614188787   -0.00000184672   -2.00000000000
    -10.51614539454   -6.30968375958   -0.00000184672   -2.00000000000
    -10.51613799954    0.00000897147   -6.34232890421   -2.00000000000
     -8.41290893540    6.30969616389   -6.34232890421   -2.00000000000
     -6.30967987125    8.41292522803   -6.34232890421   -2.00000000000
      0.00000732117   10.51615429218   -6.34232890421   -2.00000000000
      6.30969451360    8.41292522803   -6.34232890421   -2.00000000000
      8.41292357774    6.30969616389   -6.34232890421   -2.00000000000
     10.51615264188    0.00000897147   -6.34232890421   -2.00000000000
      8.41292357774   -6.30967822096   -6.34232890421   -2.00000000000
      6.30969451360   -8.41290728510   -6.34232890421   -2.00000000000
      0.00000732117  -10.51613634924   -6.34232890421   -2.00000000000
     -6.30967987125   -8.41290728510   -6.34232890421   -2.00000000000
     -8.41290893540   -6.30967822096   -6.34232890421   -2.00000000000
     -6.30967987125    6.30969616389   -8.44555796836   -2.00000000000
      6.30969451360    6.30969616389   -8.44555796836   -2.00000000000
      6.30969451360   -6.30967822096   -8.44555796836   -2.00000000000
     -6.30967987125   -6.30967822096   -8.44555796836   -2.00000000000
     -6.30967987125    0.00000897147  -10.54878703250   -2.00000000000
      0.00000732117    6.30969616389  -10.54878703250   -2.00000000000
      6.30969451360    0.00000897147  -10.54878703250   -2.00000000000
      0.00000732117   -6.30967822096  -10.54878703250   -2.00000000000
    -10.51613973119    6.30969517152   -2.12732261718    2.00000000000
     -6.30968160290   10.51615329981   -2.12732261718    2.00000000000
      6.30969278195   10.51615329981   -2.12732261718    2.00000000000
     10.51615091024    6.30969517152   -2.12732261718    2.00000000000
     10.51615091024   -6.30967921333   -2.12732261718    2.00000000000
      6.30969278195  -10.51613734162   -2.12732261718    2.00000000000
     -6.30968160290  -10.51613734162   -2.12732261718    2.00000000000
    -10.51613973119   -6.30967921333   -2.12732261718    2.00000000000
    -10.51613799954    2.10323803561   -6.34232890421    2.00000000000
     -2.10322174297   10.51615429218   -6.34232890421    2.00000000000
      2.10323638531   10.51615429218   -6.34232890421    2.00000000000
     10.51615264188    2.10323803561   -6.34232890421    2.00000000000
     10.51615264188   -2.10322009268   -6.34232890421    2.00000000000
      2.10323638531  -10.51613634924   -6.34232890421    2.00000000000
     -2.10322174297  -10.51613634924   -6.34232890421    2.00000000000
    -10.51613799954   -2.10322009268   -6.34232890421    2.00000000000
     -6.30967987125    2.10323803561  -10.54878703250    2.00000000000
     -2.10322174297    6.30969616389  -10.54878703250    2.00000000000
      2.10323638531    6.30969616389  -10.54878703250    2.00000000000
      6.30969451360    2.10323803561  -10.54878703250    2.00000000000
      6.30969451360   -2.10322009268  -10.54878703250    2.00000000000
      2.10323638531   -6.30967822096  -10.54878703250    2.00000000000
     -2.10322174297   -6.30967822096  -10.54878703250    2.00000000000
     -6.30967987125   -2.10322009268  -10.54878703250    2.00000000000
    -12.61937438485    0.00000000000    0.00000000000   -2.00000000000
      0.00000000000   12.61937438485    0.00000000000   -2.00000000000
     12.61937438485    0.00000000000    0.00000000000   -2.00000000000
      0.00000000000  -12.61937438485    0.00000000000   -2.00000000000
     -8.41290893540    8.41292522803   -4.23909984007   -2.00000000000
      8.41292357774    8.41292522803   -4.23909984007   -2.00000000000
      8.41292357774   -8.41290728510   -4.23909984007   -2.00000000000
     -8.41290893540   -8.41290728510   -4.23909984007   -2.00000000000
     -8.41290893540    4.20646709975   -8.44555796836   -2.00000000000
     -4.20645080711    8.41292522803   -8.44555796836   -2.00000000000
      4.20646544946    8.41292522803   -8.44555796836   -2.00000000000
      8.41292357774    4.20646709975   -8.44555796836   -2.00000000000
      8.41292357774   -4.20644915682   -8.44555796836   -2.00000000000
      4.20646544946   -8.41290728510   -8.44555796836   -2.00000000000
     -4.20645080711   -8.41290728510   -8.44555796836   -2.00000000000
     -8.41290893540   -4.20644915682   -8.44555796836   -2.00000000000
      0.00000732117    0.00000897147  -12.65201609664   -2.00000000000
    -12.61937516006    2.10323371923   -0.04127288263    2.00000000000
     -2.10322620878   12.61937811495   -0.04129472389    2.00000000000
      2.10323191950   12.61937811495   -0.04129472389    2.00000000000
     12.61937360965    2.10323371923   -0.04127288263    2.00000000000
     12.61937360965   -2.10322440905   -0.04127288263    2.00000000000
      2.10323191950  -12.61937065476   -0.04129472389    2.00000000000
     -2.10322620878  -12.61937065476   -0.04129472389    2.00000000000
    -12.61937516006   -2.10322440905   -0.04127288263    2.00000000000
    -12.61936887543    0.00000833428   -2.12731743682    2.00000000000
      0.00000550943   12.61938271913   -2.12731743682    2.00000000000
     12.61937989428    0.00000833428   -2.12731743682    2.00000000000
      0.00000550943  -12.61936605057   -2.12731743682    2.00000000000
     -2.10322174297    0.00000897147  -12.65201609664    2.00000000000
      0.00000732117    2.10323803561  -12.65201609664    2.00000000000
      2.10323638531    0.00000897147  -12.65201609664    2.00000000000
      0.00000732117   -2.10322009268  -12.65201609664    2.00000000000
    -12.61937341088    2.10323217703   -2.13226748721   -2.00000000000
     -2.10322637832   12.61937452141   -2.13228003377   -2.00000000000
      2.10323174996   12.61937452141   -2.13228003377   -2.00000000000
     12.61937535883    2.10323217703   -2.13226748721   -2.00000000000
     12.61937535883   -2.10322595126   -2.13226748721   -2.00000000000
      2.10323174996  -12.61937424830   -2.13228003377   -2.00000000000
     -2.10322637832  -12.61937424830   -2.13228003377   -2.00000000000
    -12.61937341088   -2.10322595126   -2.13226748721   -2.00000000000
    -10.51613799954    6.30969616389   -4.23909984007   -2.00000000000
     -6.30967987125   10.51615429218   -4.23909984007   -2.00000000000
      6.30969451360   10.51615429218   -4.23909984007   -2.00000000000
     10.51615264188    6.30969616389   -4.23909984007   -2.00000000000
     10.51615264188   -6.30967822096   -4.23909984007   -2.00000000000
      6.30969451360  -10.51613634924   -4.23909984007   -2.00000000000
     -6.30967987125  -10.51613634924   -4.23909984007   -2.00000000000
    -10.51613799954   -6.30967822096   -4.23909984007   -2.00000000000
    -10.51613799954    4.20646709975   -6.34232890421   -2.00000000000
     -4.20645080711   10.51615429218   -6.34232890421   -2.00000000000
      4.20646544946   10.51615429218   -6.34232890421   -2.00000000000
     10.51615264188    4.20646709975   -6.34232890421   -2.00000000000
     10.51615264188   -4.20644915682   -6.34232890421   -2.00000000000
      4.20646544946  -10.51613634924   -6.34232890421   -2.00000000000
     -4.20645080711  -10.51613634924   -6.34232890421   -2.00000000000
    -10.51613799954   -4.20644915682   -6.34232890421   -2.00000000000
     -6.30967987125    4.20646709975  -10.54878703250   -2.00000000000
     -4.20645080711    6.30969616389  -10.54878703250   -2.00000000000
      4.20646544946    6.30969616389  -10.54878703250   -2.00000000000
      6.30969451360    4.20646709975  -10.54878703250   -2.00000000000
      6.30969451360   -4.20644915682  -10.54878703250   -2.00000000000
      4.20646544946   -6.30967822096  -10.54878703250   -2.00000000000
     -4.20645080711   -6.30967822096  -10.54878703250   -2.00000000000
     -6.30967987125   -4.20644915682  -10.54878703250   -2.00000000000
     -2.10322174297    2.10323803561  -12.65201609664   -2.00000000000
      2.10323638531    2.10323803561  -12.65201609664   -2.00000000000
      2.10323638531   -2.10322009268  -12.65201609664   -2.00000000000
     -2.10322174297   -2.10322009268  -12.65201609664   -2.00000000000
    -12.61937438485    4.20645812828    0.00000000000   -2.00000000000
     -4.20645812828   12.61937438485    0.00000000000   -2.00000000000
      4.20645812828   12.61937438485    0.00000000000   -2.00000000000
     12.61937438485    4.20645812828    0.00000000000   -2.00000000000
     12.61937438485   -4.20645812828    0.00000000000   -2.00000000000
      4.20645812828  -12.61937438485    0.00000000000   -2.00000000000
     -4.20645812828  -12.61937438485    0.00000000000   -2.00000000000
    -12.61937438485   -4.20645812828    0.00000000000   -2.00000000000
    -12.61936706368    0.00000897147   -4.23909984007   -2.00000000000
      0.00000732117   12.61938335632   -4.23909984007   -2.00000000000
     12.61938170602    0.00000897147   -4.23909984007   -2.00000000000
      0.00000732117  -12.61936541339   -4.23909984007   -2.00000000000
     -4.20645080711    0.00000897147  -12.65201609664   -2.00000000000
      0.00000732117    4.20646709975  -12.65201609664   -2.00000000000
      4.20646544946    0.00000897147  -12.65201609664   -2.00000000000
      0.00000732117   -4.20644915682  -12.65201609664   -2.00000000000
    -10.51614246535    8.41291998667   -0.04129472389    2.00000000000
     -8.41291703177   10.51614997580   -0.04127288263    2.00000000000
      8.41291548137   10.51614997580   -0.04127288263    2.00000000000
     10.51614817607    8.41291998667   -0.04129472389    2.00000000000
     10.51614817607   -8.41291252647   -0.04129472389    2.00000000000
      8.41291548137  -10.51614066562   -0.04127288263    2.00000000000
     -8.41291703177  -10.51614066562   -0.04127288263    2.00000000000
    -10.51614246535   -8.41291252647   -0.04129472389    2.00000000000
    -12.61936887543    4.20646646256   -2.12731743682    2.00000000000
     -4.20645261886   12.61938271913   -2.12731743682    2.00000000000
      4.20646363771   12.61938271913   -2.12731743682    2.00000000000
     12.61937989428    4.20646646256   -2.12731743682    2.00000000000
     12.61937989428   -4.20644979401   -2.12731743682    2.00000000000
      4.20646363771  -12.61936605057   -2.12731743682    2.00000000000
     -4.20645261886  -12.61936605057   -2.12731743682    2.00000000000
    -12.61936887543   -4.20644979401   -2.12731743682    2.00000000000
    -12.61936706368    2.10323803561   -4.23909984007    2.00000000000
     -2.10322174297   12.61938335632   -4.23909984007    2.00000000000
      2.10323638531   12.61938335632   -4.23909984007    2.00000000000
     12.61938170602    2.10323803561   -4.23909984007    2.00000000000
     12.61938170602   -2.10322009268   -4.23909984007    2.00000000000
      2.10323638531  -12.61936541339   -4.23909984007    2.00000000000
     -2.10322174297  -12.61936541339   -4.23909984007    2.00000000000
    -12.61936706368   -2.10322009268   -4.23909984007    2.00000000000
     -8.41290893540    8.41292522803   -6.34232890421    2.00000000000
      8.41292357774    8.41292522803   -6.34232890421    2.00000000000
      8.41292357774   -8.41290728510   -6.34232890421    2.00000000000
     -8.41290893540   -8.41290728510   -6.34232890421    2.00000000000
    -10.51613799954    0.00000897147   -8.44555796836    2.00000000000
     -8.41290893540    6.30969616389   -8.44555796836    2.00000000000
     -6.30967987125    8.41292522803   -8.44555796836    2.00000000000
      0.00000732117   10.51615429218   -8.44555796836    2.00000000000
      6.30969451360    8.41292522803   -8.44555796836    2.00000000000
      8.41292357774    6.30969616389   -8.44555796836    2.00000000000
     10.51615264188    0.00000897147   -8.44555796836    2.00000000000
      8.41292357774   -6.30967822096   -8.44555796836    2.00000000000
      6.30969451360   -8.41290728510   -8.44555796836    2.00000000000
      0.00000732117  -10.51613634924   -8.44555796836    2.00000000000
     -6.30967987125   -8.41290728510   -8.44555796836    2.00000000000
     -8.41290893540   -6.30967822096   -8.44555796836    2.00000000000
     -8.41290893540    0.00000897147  -10.54878703250    2.00000000000
      0.00000732117    8.41292522803  -10.54878703250    2.00000000000
      8.41292357774    0.00000897147  -10.54878703250    2.00000000000
      0.00000732117   -8.41290728510  -10.54878703250    2.00000000000
     -4.20645080711    2.10323803561  -12.65201609664    2.00000000000
     -2.10322174297    4.20646709975  -12.65201609664    2.00000000000
      2.10323638531    4.20646709975  -12.65201609664    2.00000000000
      4.20646544946    2.10323803561  -12.65201609664    2.00000000000
      4.20646544946   -2.10322009268  -12.65201609664    2.00000000000
      2.10323638531   -4.20644915682  -12.65201609664    2.00000000000
     -2.10322174297   -4.20644915682  -12.65201609664    2.00000000000
     -4.20645080711   -2.10322009268  -12.65201609664    2.00000000000
    -10.51614263489    8.41291639312   -2.13228003377   -2.00000000000
     -8.41291528259   10.51614843360   -2.13226748721   -2.00000000000
      8.41291723054   10.51614843360   -2.13226748721   -2.00000000000
     10.51614800653    8.41291639312   -2.13228003377   -2.00000000000
     10.51614800653   -8.41291612001   -2.13228003377   -2.00000000000
      8.41291723054  -10.51614220782   -2.13226748721   -2.00000000000
     -8.41291528259  -10.51614220782   -2.13226748721   -2.00000000000
    -10.51614263489   -8.41291612001   -2.13228003377   -2.00000000000
    -10.51613799954    2.10323803561   -8.44555796836   -2.00000000000
     -2.10322174297   10.51615429218   -8.44555796836   -2.00000000000
      2.10323638531   10.51615429218   -8.44555796836   -2.00000000000
     10.51615264188    2.10323803561   -8.44555796836   -2.00000000000
     10.51615264188   -2.10322009268   -8.44555796836   -2.00000000000
      2.10323638531  -10.51613634924   -8.44555796836   -2.00000000000
     -2.10322174297  -10.51613634924   -8.44555796836   -2.00000000000
    -10.51613799954   -2.10322009268   -8.44555796836   -2.00000000000
     -8.41290893540    2.10323803561  -10.54878703250   -2.00000000000
     -2.10322174297    8.41292522803  -10.54878703250   -2.00000000000
      2.10323638531    8.41292522803  -10.54878703250   -2.00000000000
      8.41292357774    2.10323803561  -10.54878703250   -2.00000000000
      8.41292357774   -2.10322009268  -10.54878703250   -2.00000000000
      2.10323638531   -8.41290728510  -10.54878703250   -2.00000000000
     -2.10322174297   -8.41290728510  -10.54878703250   -2.00000000000
     -8.41290893540   -2.10322009268  -10.54878703250   -2.00000000000
    -10.51613799954    6.30969616389   -6.34232890421    2.00000000000
     -6.30967987125   10.51615429218   -6.34232890421    2.00000000000
      6.30969451360   10.51615429218   -6.34232890421    2.00000000000
     10.51615264188    6.30969616389   -6.34232890421    2.00000000000
     10.51615264188   -6.30967822096   -6.34232890421    2.00000000000
      6.30969451360  -10.51613634924   -6.34232890421    2.00000000000
     -6.30967987125  -10.51613634924   -6.34232890421    2.00000000000
    -10.51613799954   -6.30967822096   -6.34232890421    2.00000000000
     -6.30967987125    6.30969616389  -10.54878703250    2.00000000000
      6.30969451360    6.30969616389  -10.54878703250    2.00000000000
      6.30969451360   -6.30967822096  -10.54878703250    2.00000000000
     -6.30967987125   -6.30967822096  -10.54878703250    2.00000000000
    -12.61936706368    4.20646709975   -4.23909984007   -2.00000000000
     -4.20645080711   12.61938335632   -4.23909984007   -2.00000000000
      4.20646544946   12.61938335632   -4.23909984007   -2.00000000000
     12.61938170602    4.20646709975   -4.23909984007   -2.00000000000
     12.61938170602   -4.20644915682   -4.23909984007   -2.00000000000
      4.20646544946  -12.61936541339   -4.23909984007   -2.00000000000
     -4.20645080711  -12.61936541339   -4.23909984007   -2.00000000000
    -12.61936706368   -4.20644915682   -4.23909984007   -2.00000000000
     -4.20645080711    4.20646709975  -12.65201609664   -2.00000000000
      4.20646544946    4.20646709975  -12.65201609664   -2.00000000000
      4.20646544946   -4.20644915682  -12.65201609664   -2.00000000000
     -4.20645080711   -4.20644915682  -12.65201609664   -2.00000000000
    -12.61937516006    6.30969184751   -0.04127288263    2.00000000000
     -6.30968433707   12.61937811495   -0.04129472389    2.00000000000
      6.30969004779   12.61937811495   -0.04129472389    2.00000000000
     12.61937360965    6.30969184751   -0.04127288263    2.00000000000
     12.61937360965   -6.30968253734   -0.04127288263    2.00000000000
      6.30969004779  -12.61937065476   -0.04129472389    2.00000000000
     -6.30968433707  -12.61937065476   -0.04129472389    2.00000000000
    -12.61937516006   -6.30968253734   -0.04127288263    2.00000000000
    -10.51613799954    8.41292522803   -4.23909984007    2.00000000000
     -8.41290893540   10.51615429218   -4.23909984007    2.00000000000
      8.41292357774   10.51615429218   -4.23909984007    2.00000000000
     10.51615264188    8.41292522803   -4.23909984007    2.00000000000
     10.51615264188   -8.41290728510   -4.23909984007    2.00000000000
      8.41292357774  -10.51613634924   -4.23909984007    2.00000000000
     -8.41290893540  -10.51613634924   -4.23909984007    2.00000000000
    -10.51613799954   -8.41290728510   -4.23909984007    2.00000000000
    -12.61936706368    0.00000897147   -6.34232890421    2.00000000000
      0.00000732117   12.61938335632   -6.34232890421    2.00000000000
     12.61938170602    0.00000897147   -6.34232890421    2.00000000000
      0.00000732117  -12.61936541339   -6.34232890421    2.00000000000
    -10.51613799954    4.20646709975   -8.44555796836    2.00000000000
     -4.20645080711   10.51615429218   -8.44555796836    2.00000000000
      4.20646544946   10.51615429218   -8.44555796836    2.00000000000
     10.51615264188    4.20646709975   -8.44555796836    2.00000000000
     10.51615264188   -4.20644915682   -8.44555796836    2.00000000000
      4.20646544946  -10.51613634924   -8.44555796836    2.00000000000
     -4.20645080711  -10.51613634924   -8.44555796836    2.00000000000
    -10.51613799954   -4.20644915682   -8.44555796836    2.00000000000
     -8.41290893540    4.20646709975  -10.54878703250    2.00000000000
     -4.20645080711    8.41292522803  -10.54878703250    2.00000000000
      4.20646544946    8.41292522803  -10.54878703250    2.00000000000
      8.41292357774    4.20646709975  -10.54878703250    2.00000000000
      8.41292357774   -4.20644915682  -10.54878703250    2.00000000000
      4.20646544946   -8.41290728510  -10.54878703250    2.00000000000
     -4.20645080711   -8.41290728510  -10.54878703250    2.00000000000
     -8.41290893540   -4.20644915682  -10.54878703250    2.00000000000
     -6.30967987125    0.00000897147  -12.65201609664    2.00000000000
      0.00000732117    6.30969616389  -12.65201609664    2.00000000000
      6.30969451360    0.00000897147  -12.65201609664    2.00000000000
      0.00000732117   -6.30967822096  -12.65201609664    2.00000000000
    -12.61937341088    6.30969030531   -2.13226748721   -2.00000000000
     -6.30968450660   12.61937452141   -2.13228003377   -2.00000000000
      6.30968987825   12.61937452141   -2.13228003377   -2.00000000000
     12.61937535883    6.30969030531   -2.13226748721   -2.00000000000
     12.61937535883   -6.30968407954   -2.13226748721   -2.00000000000
      6.30968987825  -12.61937424830   -2.13228003377   -2.00000000000
     -6.30968450660  -12.61937424830   -2.13228003377   -2.00000000000
    -12.61937341088   -6.30968407954   -2.13226748721   -2.00000000000
    -12.61936706368    2.10323803561   -6.34232890421   -2.00000000000
     -2.10322174297   12.61938335632   -6.34232890421   -2.00000000000
      2.10323638531   12.61938335632   -6.34232890421   -2.00000000000
     12.61938170602    2.10323803561   -6.34232890421   -2.00000000000
     12.61938170602   -2.10322009268   -6.34232890421   -2.00000000000
      2.10323638531  -12.61936541339   -6.34232890421   -2.00000000000
     -2.10322174297  -12.61936541339   -6.34232890421   -2.00000000000
    -12.61936706368   -2.10322009268   -6.34232890421   -2.00000000000
     -6.30967987125    2.10323803561  -12.65201609664   -2.00000000000
     -2.10322174297    6.30969616389  -12.65201609664   -2.00000000000
      2.10323638531    6.30969616389  -12.65201609664   -2.00000000000
      6.30969451360    2.10323803561  -12.65201609664   -2.00000000000
      6.30969451360   -2.10322009268  -12.65201609664   -2.00000000000
      2.10323638531   -6.30967822096  -12.65201609664   -2.00000000000
     -2.10322174297   -6.30967822096  -12.65201609664   -2.00000000000
     -6.30967987125   -2.10322009268  -12.65201609664   -2.00000000000
     -8.41290893540    8.41292522803   -8.44555796836   -2.00000000000
      8.41292357774    8.41292522803   -8.44555796836   -2.00000000000
      8.41292357774   -8.41290728510   -8.44555796836   -2.00000000000
     -8.41290893540   -8.41290728510   -8.44555796836   -2.00000000000
    -14.72260059364    0.00000373010   -0.04129472389    2.00000000000
     -0.00000077520   14.72260810408   -0.04127288263    2.00000000000
     14.72260630435    0.00000373010   -0.04129472389    2.00000000000
     -0.00000077520  -14.72259879391   -0.04127288263    2.00000000000
    -12.61936706368    6.30969616389   -4.23909984007    2.00000000000
     -6.30967987125   12.61938335632   -4.23909984007    2.00000000000
      6.30969451360   12.61938335632   -4.23909984007    2.00000000000
     12.61938170602    6.30969616389   -4.23909984007    2.00000000000
     12.61938170602   -6.30967822096   -4.23909984007    2.00000000000
      6.30969451360  -12.61936541339   -4.23909984007    2.00000000000
     -6.30967987125  -12.61936541339   -4.23909984007    2.00000000000
    -12.61936706368   -6.30967822096   -4.23909984007    2.00000000000
    -12.61936706368    4.20646709975   -6.34232890421    2.00000000000
     -4.20645080711   12.61938335632   -6.34232890421    2.00000000000
      4.20646544946   12.61938335632   -6.34232890421    2.00000000000
     12.61938170602    4.20646709975   -6.34232890421    2.00000000000
     12.61938170602   -4.20644915682   -6.34232890421    2.00000000000
      4.20646544946  -12.61936541339   -6.34232890421    2.00000000000
     -4.20645080711  -12.61936541339   -6.34232890421    2.00000000000
    -12.61936706368   -4.20644915682   -6.34232890421    2.00000000000
     -6.30967987125    4.20646709975  -12.65201609664    2.00000000000
     -4.20645080711    6.30969616389  -12.65201609664    2.00000000000
      4.20646544946    6.30969616389  -12.65201609664    2.00000000000
      6.30969451360    4.20646709975  -12.65201609664    2.00000000000
      6.30969451360   -4.20644915682  -12.65201609664    2.00000000000
      4.20646544946   -6.30967822096  -12.65201609664    2.00000000000
     -4.20645080711   -6.30967822096  -12.65201609664    2.00000000000
     -6.30967987125   -4.20644915682  -12.65201609664    2.00000000000
      0.00000732117    0.00000897147  -14.75524516078    2.00000000000
    -14.72260352282    2.10323249699   -0.00000184672   -2.00000000000
    -10.51614539454   10.51614875355   -0.00000184672   -2.00000000000
     -2.10322913797   14.72260688184   -0.00000184672   -2.00000000000
      2.10322899032   14.72260688184   -0.00000184672   -2.00000000000
     10.51614524688   10.51614875355   -0.00000184672   -2.00000000000
     14.72260337517    2.10323249699   -0.00000184672   -2.00000000000
     14.72260337517   -2.10322563130   -0.00000184672   -2.00000000000
     10.51614524688  -10.51614188787   -0.00000184672   -2.00000000000
      2.10322899032  -14.72260001615   -0.00000184672   -2.00000000000
     -2.10322913797  -14.72260001615   -0.00000184672   -2.00000000000
    -10.51614539454  -10.51614188787   -0.00000184672   -2.00000000000
    -14.72260352282   -2.10322563130   -0.00000184672   -2.00000000000
    -14.72260076317    0.00000013655   -2.13228003377   -2.00000000000
      0.00000097398   14.72260656188   -2.13226748721   -2.00000000000
     14.72260613482    0.00000013655   -2.13228003377   -2.00000000000
      0.00000097398  -14.72260033611   -2.13226748721   -2.00000000000
    -10.51613799954    8.41292522803   -6.34232890421   -2.00000000000
     -8.41290893540   10.51615429218   -6.34232890421   -2.00000000000
      8.41292357774   10.51615429218   -6.34232890421   -2.00000000000
     10.51615264188    8.41292522803   -6.34232890421   -2.00000000000
     10.51615264188   -8.41290728510   -6.34232890421   -2.00000000000
      8.41292357774  -10.51613634924   -6.34232890421   -2.00000000000
     -8.41290893540  -10.51613634924   -6.34232890421   -2.00000000000
    -10.51613799954   -8.41290728510   -6.34232890421   -2.00000000000
    -10.51613799954    6.30969616389   -8.44555796836   -2.00000000000
     -6.30967987125   10.51615429218   -8.44555796836   -2.00000000000
      6.30969451360   10.51615429218   -8.44555796836   -2.00000000000
     10.51615264188    6.30969616389   -8.44555796836   -2.00000000000
     10.51615264188   -6.30967822096   -8.44555796836   -2.00000000000
      6.30969451360  -10.51613634924   -8.44555796836   -2.00000000000
     -6.30967987125  -10.51613634924   -8.44555796836   -2.00000000000
    -10.51613799954   -6.30967822096   -8.44555796836   -2.00000000000
    -10.51613799954    0.00000897147  -10.54878703250   -2.00000000000
     -8.41290893540    6.30969616389  -10.54878703250   -2.00000000000
     -6.30967987125    8.41292522803  -10.54878703250   -2.00000000000
      0.00000732117   10.51615429218  -10.54878703250   -2.00000000000
      6.30969451360    8.41292522803  -10.54878703250   -2.00000000000
      8.41292357774    6.30969616389  -10.54878703250   -2.00000000000
     10.51615264188    0.00000897147  -10.54878703250   -2.00000000000
      8.41292357774   -6.30967822096  -10.54878703250   -2.00000000000
      6.30969451360   -8.41290728510  -10.54878703250   -2.00000000000
      0.00000732117  -10.51613634924  -10.54878703250   -2.00000000000
     -6.30967987125   -8.41290728510  -10.54878703250   -2.00000000000
     -8.41290893540   -6.30967822096  -10.54878703250   -2.00000000000
     -2.10322174297    0.00000897147  -14.75524516078   -2.00000000000
      0.00000732117    2.10323803561  -14.75524516078   -2.00000000000
      2.10323638531    0.00000897147  -14.75524516078   -2.00000000000
      0.00000732117   -2.10322009268  -14.75524516078   -2.00000000000
    -14.72259785947    2.10323704324   -2.12732261718    2.00000000000
    -10.51613973119   10.51615329981   -2.12732261718    2.00000000000
     -2.10322347462   14.72261142809   -2.12732261718    2.00000000000
      2.10323465367   14.72261142809   -2.12732261718    2.00000000000
     10.51615091024   10.51615329981   -2.12732261718    2.00000000000
     14.72260903852    2.10323704324   -2.12732261718    2.00000000000
     14.72260903852   -2.10322108505   -2.12732261718    2.00000000000
     10.51615091024  -10.51613734162   -2.12732261718    2.00000000000
      2.10323465367  -14.72259546990   -2.12732261718    2.00000000000
     -2.10322347462  -14.72259546990   -2.12732261718    2.00000000000
    -10.51613973119  -10.51613734162   -2.12732261718    2.00000000000
    -14.72259785947   -2.10322108505   -2.12732261718    2.00000000000
    -10.51613799954    2.10323803561  -10.54878703250    2.00000000000
     -2.10322174297   10.51615429218  -10.54878703250    2.00000000000
      2.10323638531   10.51615429218  -10.54878703250    2.00000000000
     10.51615264188    2.10323803561  -10.54878703250    2.00000000000
     10.51615264188   -2.10322009268  -10.54878703250    2.00000000000
      2.10323638531  -10.51613634924  -10.54878703250    2.00000000000
     -2.10322174297  -10.51613634924  -10.54878703250    2.00000000000
    -10.51613799954   -2.10322009268  -10.54878703250    2.00000000000
     -2.10322174297    2.10323803561  -14.75524516078    2.00000000000
      2.10323638531    2.10323803561  -14.75524516078    2.00000000000
      2.10323638531   -2.10322009268  -14.75524516078    2.00000000000
     -2.10322174297   -2.10322009268  -14.75524516078    2.00000000000
    -12.61937438485    8.41291625657    0.00000000000   -2.00000000000
     -8.41291625657   12.61937438485    0.00000000000   -2.00000000000
      8.41291625657   12.61937438485    0.00000000000   -2.00000000000
     12.61937438485    8.41291625657    0.00000000000   -2.00000000000
     12.61937438485   -8.41291625657    0.00000000000   -2.00000000000
      8.41291625657  -12.61937438485    0.00000000000   -2.00000000000
     -8.41291625657  -12.61937438485    0.00000000000   -2.00000000000
    -12.61937438485   -8.41291625657    0.00000000000   -2.00000000000
    -12.61936706368    0.00000897147   -8.44555796836   -2.00000000000
      0.00000732117   12.61938335632   -8.44555796836   -2.00000000000
     12.61938170602    0.00000897147   -8.44555796836   -2.00000000000
      0.00000732117  -12.61936541339   -8.44555796836   -2.00000000000
     -8.41290893540    0.00000897147  -12.65201609664   -2.00000000000
      0.00000732117    8.41292522803  -12.65201609664   -2.00000000000
      8.41292357774    0.00000897147  -12.65201609664   -2.00000000000
      0.00000732117   -8.41290728510  -12.65201609664   -2.00000000000
    -14.72260059364    4.20646185838   -0.04129472389    2.00000000000
     -4.20645890349   14.72260810408   -0.04127288263    2.00000000000
      4.20645735308   14.72260810408   -0.04127288263    2.00000000000
     14.72260630435    4.20646185838   -0.04129472389    2.00000000000
     14.72260630435   -4.20645439819   -0.04129472389    2.00000000000
      4.20645735308  -14.72259879391   -0.04127288263    2.00000000000
     -4.20645890349  -14.72259879391   -0.04127288263    2.00000000000
    -14.72260059364   -4.20645439819   -0.04129472389    2.00000000000
    -12.61936887543    8.41292459085   -2.12731743682    2.00000000000
     -8.41291074714   12.61938271913   -2.12731743682    2.00000000000
      8.41292176600   12.61938271913   -2.12731743682    2.00000000000
     12.61937989428    8.41292459085   -2.12731743682    2.00000000000
     12.61937989428   -8.41290792229   -2.12731743682    2.00000000000
      8.41292176600  -12.61936605057   -2.12731743682    2.00000000000
     -8.41291074714  -12.61936605057   -2.12731743682    2.00000000000
    -12.61936887543   -8.41290792229   -2.12731743682    2.00000000000
    -14.72259612782    0.00000897147   -4.23909984007    2.00000000000
      0.00000732117   14.72261242046   -4.23909984007    2.00000000000
     14.72261077017    0.00000897147   -4.23909984007    2.00000000000
      0.00000732117  -14.72259447753   -4.23909984007    2.00000000000
    -12.61936706368    2.10323803561   -8.44555796836    2.00000000000
     -2.10322174297   12.61938335632   -8.44555796836    2.00000000000
      2.10323638531   12.61938335632   -8.44555796836    2.00000000000
     12.61938170602    2.10323803561   -8.44555796836    2.00000000000
     12.61938170602   -2.10322009268   -8.44555796836    2.00000000000
      2.10323638531  -12.61936541339   -8.44555796836    2.00000000000
     -2.10322174297  -12.61936541339   -8.44555796836    2.00000000000
    -12.61936706368   -2.10322009268   -8.44555796836    2.00000000000
     -8.41290893540    2.10323803561  -12.65201609664    2.00000000000
     -2.10322174297    8.41292522803  -12.65201609664    2.00000000000
      2.10323638531    8.41292522803  -12.65201609664    2.00000000000
      8.41292357774    2.10323803561  -12.65201609664    2.00000000000
      8.41292357774   -2.10322009268  -12.65201609664    2.00000000000
      2.10323638531   -8.41290728510  -12.65201609664    2.00000000000
     -2.10322174297   -8.41290728510  -12.65201609664    2.00000000000
     -8.41290893540   -2.10322009268  -12.65201609664    2.00000000000
[...]
       52.78 MB memory was utilized by CCSD
 
 T1 diagnostic:      7.285E-03            D1 diagnostic:      1.730E-02
 
 CCSD correlation energy [au]:          -0.048845520362
 
 CPU time [min]:   126.322                   Wall time [min]:     1.778
 
 Calculation of (T) correction...
 
 Laplace threshold, nquadmin:  1.00E-01   2
 Number of quadrature points:    2
 
       49.33 MB memory is utilized for (T)

 0%       25%       50%       75%       100%
 |---------|---------|---------|---------| 
 
 (T) correction [au]:                   -0.000504696383
 CCSD(T) correlation energy [au]:       -0.049350216745
 
 CPU time [min]:   126.445                   Wall time [min]:     1.779
 
 MO:    69
 Number of atoms in domain:      19
 Number of atomic orbitals:     286
 Number of atoms for local DF:   14
 Number of fitting functions:   652  (73.09%)
 Number of occupied orbitals:    21
 Number of virtual  orbitals:   183
 Number of Cholesky vectors:      7
 MP2 energy in ED [au]:          -0.049366701299
 Number of occupied LNOs:         7  (33.33%)
 Number of virtual  LNOs:        20  (10.93%)
dropped smallnorm    36    37   4.32557139E-05
dropped smallnorm    36    38   3.88679868E-05
dropped smallnorm    36    39   3.16953933E-05
 avg/min projected vLNO norm    9.9798E-01    9.9425E-01
 Number of Cholesky vectors:      5
 MP2 energy in LIS [au]:         -0.048894483393
 Correction for frozen LNO [au]: -0.000472217906     (0.957%)
 Number of NAFs:                 55   (8.44%)
 CPU time [min]:   128.041                   Wall time [min]:     1.802
 

 Direct DF-CCSD(T) calculation
 
 Convergence criterion:  1.0E-05
 
 Number of occupied/virtual/auxiliary orbitals:     7    20    55
     49.33 MB is the minimal memory requirement for (T)
     52.46 MB is the minimal memory requirement for CCSD
 
 MP2 correlation energy [au]:        -0.199564277024
 
 LMP2 domain correlation energy contribution [au]:       -0.048904449698
 
 CPU time [min]:   128.088                   Wall time [min]:     1.802
 
 
 Starting CCSD iterations...
 
                     Residual norm       Correlation Energy
 Iteration  1        0.099533205575       -0.200361464496
 Iteration  2        0.030559008009       -0.204684697131
 Iteration  3        0.010843098268       -0.205813157997
 Iteration  4        0.002249072028       -0.205752074166
 Iteration  5        0.000666414539       -0.205750371817
 Iteration  6        0.000192874921       -0.205753562788
 Iteration  7        0.000071851121       -0.205752730924
 
 CCSD iteration has converged in  7 steps.
       52.99 MB memory was utilized by CCSD
 
 T1 diagnostic:      9.073E-03            D1 diagnostic:      2.420E-02
 
 CCSD correlation energy [au]:          -0.049926992406
 
 CPU time [min]:   128.244                   Wall time [min]:     1.805
 
 Calculation of (T) correction...
 
 Laplace threshold, nquadmin:  1.00E-01   2
 Number of quadrature points:    2
 
       49.54 MB memory is utilized for (T)

 0%       25%       50%       75%       100%
 |---------|---------|---------|---------| 
 
 (T) correction [au]:                   -0.000534062656
 CCSD(T) correlation energy [au]:       -0.050461055061
 
 CPU time [min]:   128.377                   Wall time [min]:     1.806
 
 MO:    70
 Number of atoms in domain:      19
 Number of atomic orbitals:     286
 Number of atoms for local DF:   14
 Number of fitting functions:   652  (73.09%)
 Number of occupied orbitals:    21
 Number of virtual  orbitals:   183
 Number of Cholesky vectors:      7
 MP2 energy in ED [au]:          -0.049365194389
 Number of occupied LNOs:         7  (33.33%)
 Number of virtual  LNOs:        20  (10.93%)
dropped smallnorm    72    73   3.61645926E-05
dropped smallnorm    72    74   3.96862814E-05
dropped smallnorm    72    75   1.82622396E-05
 avg/min projected vLNO norm    9.9798E-01    9.9425E-01
 Number of Cholesky vectors:      5
 MP2 energy in LIS [au]:         -0.048895626280
 Correction for frozen LNO [au]: -0.000469568109     (0.951%)
 Number of NAFs:                 55   (8.44%)
 CPU time [min]:   129.937                   Wall time [min]:     1.828
 

 Direct DF-CCSD(T) calculation
 
 Convergence criterion:  1.0E-05
 
 Number of occupied/virtual/auxiliary orbitals:     7    20    55
     49.33 MB is the minimal memory requirement for (T)
     52.46 MB is the minimal memory requirement for CCSD
 
 MP2 correlation energy [au]:        -0.199581055205
 
 LMP2 domain correlation energy contribution [au]:       -0.048905617490
 
 CPU time [min]:   129.983                   Wall time [min]:     1.829
 
 
 Starting CCSD iterations...
 
                     Residual norm       Correlation Energy
 Iteration  1        0.099531201104       -0.200384593392
 Iteration  2        0.030563967548       -0.204711027473
 Iteration  3        0.010841786539       -0.205840042852
 Iteration  4        0.002248485585       -0.205778903133
 Iteration  5        0.000666300372       -0.205777171769
 Iteration  6        0.000192863164       -0.205780369487
 Iteration  7        0.000071838048       -0.205779545959
 
 CCSD iteration has converged in  7 steps.
       52.99 MB memory was utilized by CCSD
 
 T1 diagnostic:      9.077E-03            D1 diagnostic:      2.421E-02
 
 CCSD correlation energy [au]:          -0.049928745866
 
 CPU time [min]:   130.176                   Wall time [min]:     1.832
 
 Calculation of (T) correction...
 
 Laplace threshold, nquadmin:  1.00E-01   2
 Number of quadrature points:    2
 
       49.54 MB memory is utilized for (T)

 0%       25%       50%       75%       100%
 |---------|---------|---------|---------| 
 
 (T) correction [au]:                   -0.000534160217
 CCSD(T) correlation energy [au]:       -0.050462906083
 
 CPU time [min]:   130.340                   Wall time [min]:     1.834
 
 MO:    71
 Number of atoms in domain:      19
 Number of atomic orbitals:     286
 Number of atoms for local DF:   15
 Number of fitting functions:   700  (78.48%)
 Number of occupied orbitals:    21
 Number of virtual  orbitals:   191
 Number of Cholesky vectors:      7
 MP2 energy in ED [au]:          -0.049366955823
 Number of occupied LNOs:         7  (33.33%)
 Number of virtual  LNOs:        20  (10.47%)
dropped smallnorm    54    55   4.32531420E-05
dropped smallnorm    54    56   3.16941998E-05
dropped smallnorm    54    57   3.88689013E-05
 avg/min projected vLNO norm    9.9838E-01    9.9512E-01
 Number of Cholesky vectors:      5
 MP2 energy in LIS [au]:         -0.048898249877
 Correction for frozen LNO [au]: -0.000468705946     (0.949%)
 Number of NAFs:                 55   (7.86%)
 CPU time [min]:   132.030                   Wall time [min]:     1.858
 

 Direct DF-CCSD(T) calculation
 
 Convergence criterion:  1.0E-05
 
 Number of occupied/virtual/auxiliary orbitals:     7    20    55
     49.33 MB is the minimal memory requirement for (T)
     52.46 MB is the minimal memory requirement for CCSD
 
 MP2 correlation energy [au]:        -0.199576331777
 
 LMP2 domain correlation energy contribution [au]:       -0.048908163490
 
 CPU time [min]:   132.076                   Wall time [min]:     1.858
 
 
 Starting CCSD iterations...
 
                     Residual norm       Correlation Energy
 Iteration  1        0.099543078318       -0.200371352562
 Iteration  2        0.030562724227       -0.204694354485
 Iteration  3        0.010845640128       -0.205822979274
 Iteration  4        0.002250539280       -0.205761937888
 Iteration  5        0.000667425250       -0.205760260508
 Iteration  6        0.000193410899       -0.205763462574
 Iteration  7        0.000072068607       -0.205762624689
 
 CCSD iteration has converged in  7 steps.
       52.99 MB memory was utilized by CCSD
 
 T1 diagnostic:      9.073E-03            D1 diagnostic:      2.421E-02
 
 CCSD correlation energy [au]:          -0.049930938814
 
 CPU time [min]:   132.228                   Wall time [min]:     1.861
 
 Calculation of (T) correction...
 
 Laplace threshold, nquadmin:  1.00E-01   2
 Number of quadrature points:    2
 
       49.54 MB memory is utilized for (T)

 0%       25%       50%       75%       100%
 |---------|---------|---------|---------| 
 
 (T) correction [au]:                   -0.000534530780
 CCSD(T) correlation energy [au]:       -0.050465469594
 
 CPU time [min]:   132.402                   Wall time [min]:     1.863
 
 MO:    72
 Number of atoms in domain:      19
 Number of atomic orbitals:     286
 Number of atoms for local DF:   13
 Number of fitting functions:   604  (67.71%)
 Number of occupied orbitals:    21
 Number of virtual  orbitals:   172
 Number of Cholesky vectors:      7
 MP2 energy in ED [au]:          -0.049364658375
 Number of occupied LNOs:         7  (33.33%)
 Number of virtual  LNOs:        20  (11.63%)
dropped smallnorm    18    19   3.61648605E-05
dropped smallnorm    18    20   1.82627810E-05
dropped smallnorm    18    21   3.96868368E-05
 avg/min projected vLNO norm    9.9769E-01    9.9340E-01
 Number of Cholesky vectors:      5
 MP2 energy in LIS [au]:         -0.048893215061
 Correction for frozen LNO [au]: -0.000471443314     (0.955%)
 Number of NAFs:                 55   (9.11%)
 CPU time [min]:   133.830                   Wall time [min]:     1.883
 

 Direct DF-CCSD(T) calculation
 
 Convergence criterion:  1.0E-05
 
 Number of occupied/virtual/auxiliary orbitals:     7    20    55
     49.33 MB is the minimal memory requirement for (T)
     52.46 MB is the minimal memory requirement for CCSD
 
 MP2 correlation energy [au]:        -0.199574785376
 
 LMP2 domain correlation energy contribution [au]:       -0.048903225394
 
 CPU time [min]:   133.876                   Wall time [min]:     1.884
 
 
 Starting CCSD iterations...
 
                     Residual norm       Correlation Energy
 Iteration  1        0.099533988506       -0.200380363904
 Iteration  2        0.030567151188       -0.204707898458
 Iteration  3        0.010842284119       -0.205837235831
 Iteration  4        0.002248221801       -0.205775955866
 Iteration  5        0.000665927954       -0.205774178030
 Iteration  6        0.000192681053       -0.205777365578
 Iteration  7        0.000071773381       -0.205776544022
 
 CCSD iteration has converged in  7 steps.
       52.99 MB memory was utilized by CCSD
 
 T1 diagnostic:      9.081E-03            D1 diagnostic:      2.421E-02
 
 CCSD correlation energy [au]:          -0.049926425013
 
 CPU time [min]:   134.033                   Wall time [min]:     1.886
 
 Calculation of (T) correction...
 
 Laplace threshold, nquadmin:  1.00E-01   2
 Number of quadrature points:    2
 
       49.54 MB memory is utilized for (T)

 0%       25%       50%       75%       100%
 |---------|---------|---------|---------| 
 
 (T) correction [au]:                   -0.000533934860
 CCSD(T) correlation energy [au]:       -0.050460359873
 
 CPU time [min]:   134.197                   Wall time [min]:     1.889
 
 MO:    73
 Number of atoms in domain:      19
 Number of atomic orbitals:     286
 Number of atoms for local DF:   19
 Number of fitting functions:   892 (100.00%)
 Number of occupied orbitals:    73
 Number of virtual  orbitals:   195
 Number of Cholesky vectors:      8
 MP2 energy in ED [au]:          -0.035743226276
 Number of occupied LNOs:        37  (50.68%)
 Number of virtual  LNOs:        94  (48.21%)
dropped smallnorm    18    19   3.53992186E-05
dropped smallnorm    18    20   1.71056375E-05
dropped smallnorm    18    21   2.78069132E-05
dropped smallnorm    33    37   4.24776036E-05
dropped smallnorm    33    38   2.75058294E-05
dropped smallnorm    33    39   3.06966764E-05
dropped smallnorm    48    55   4.24759126E-05
dropped smallnorm    48    56   3.06961322E-05
dropped smallnorm    48    57   2.75080978E-05
dropped smallnorm    63    73   3.53981213E-05
dropped smallnorm    63    74   2.78043307E-05
dropped smallnorm    63    75   1.71049271E-05
dropped smallnorm    78    91   7.34459781E-05
dropped smallnorm    78    92   1.68730385E-05
dropped smallnorm    78    93   1.59771627E-05
 avg/min projected vLNO norm    9.9999E-01    9.9994E-01
 Number of Cholesky vectors:      6
 MP2 energy in LIS [au]:         -0.033558426597
 Correction for frozen LNO [au]: -0.002184799679     (6.112%)
 Number of NAFs:                318  (35.65%)
 CPU time [min]:   141.091                   Wall time [min]:     1.981
 

 Direct DF-CCSD(T) calculation
 
 Convergence criterion:  1.0E-05
 
 Number of occupied/virtual/auxiliary orbitals:    37    94   318
    334.81 MB is the minimal memory requirement for (T)
    258.94 MB is the minimal memory requirement for CCSD
 
 MP2 correlation energy [au]:        -0.771678991970
 
 LMP2 domain correlation energy contribution [au]:       -0.033484295738
 
 CPU time [min]:   141.271                   Wall time [min]:     1.984
 
 
 Starting CCSD iterations...
 
                     Residual norm       Correlation Energy
 Iteration  1        0.193592066273       -0.787066296406
 Iteration  2        0.060004714816       -0.807871553847
 Iteration  3        0.020445021990       -0.811955283208
 Iteration  4        0.004589263161       -0.811837965746
 Iteration  5        0.001814242865       -0.811736871752
 Iteration  6        0.000565574817       -0.811738106021
 Iteration  7        0.000224485877       -0.811738892251
 Iteration  8        0.000068066097       -0.811739230424
 
 CCSD iteration has converged in  8 steps.
      536.48 MB memory was utilized by CCSD
 
 T1 diagnostic:      1.235E-02            D1 diagnostic:      4.134E-02
 
 CCSD correlation energy [au]:          -0.041582110011
 
 CPU time [min]:   149.600                   Wall time [min]:     2.106
 
 Calculation of (T) correction...
 
 Laplace threshold, nquadmin:  1.00E-01   2
 Number of quadrature points:    2
 
      617.51 MB memory is utilized for (T)

 0%       25%       50%       75%       100%
 |---------|---------|---------|---------| 
 
 (T) correction [au]:                   -0.001751564190
 CCSD(T) correlation energy [au]:       -0.043333674201
 
 CPU time [min]:   158.982                   Wall time [min]:     2.239
 
 **********************************************************************
 Dimensions of the extended domains:    Minimum / Average / Maximum
 
 Number of atoms in domain:                  19      19.0        19
 Number of atomic orbitals:                 286     286.0       286
 Number of fitting functions:               556     634.2       892
 Number of occupied localized MOs:            9      21.8        73
 Number of PAOs:                            162     177.5       195
 Number of occupied LNOs:                     4       6.3        37
 Number of virtual  LNOs:                     4      17.0        94
 Number of NAFs:                             19      49.7       318
 
 **********************************************************************
 Distant (and weak) pair contributions, corrections
 
 Sum of pair energies [au]:                    -0.006248443846    (0.235%)
 Sum of energy corrections [au]:               -0.060916838648    (2.296%)
 Pair energies + LNO corrections [au]:         -0.067165282494
 Sum of LMP2 contributions [au]:               -2.653451935268
 
 **********************************************************************
  Time of manipulations in the EDs:      max CPU/Wall [s]  all CPU/Wall [min]
 
 PD construction & multipole pair E     254.46     3.71     4.24     0.06
 Construct MO basis of the ED            14.42     0.19    16.62     0.22
 (mu,nu|P) evaluation & trf 2 (ai|P)    143.85     1.91    49.10     0.66
 Evaluate MP2 energy of the ED           10.14     0.14     2.73     0.04
 Transformations to the LNO basis         7.04     0.10     2.54     0.03
 Build W_PQ (Jai or Jpi part)             2.64     0.04     0.58     0.01
 Evaluate MP2 energy of the LIS           0.32     0.00     0.09     0.00
 (mu,nu|P) evaluation & trf 2 J(abQ)    223.83     3.00    38.85     0.55
 Total of the above for all EDs         402.24     5.38   110.51     1.52
 
 **********************************************************************
 Maximum memory requirement [MB]:       
 
 PD construction & multipole pair E         52.5
 AO integral evaluation in the EDs         584.1
 (mu,nu|P) evaluation & trf 2 (aI|P)      1394.9
 Evaluate MP2 energy in the EDs            348.3
 Transformation to the LNO basis           246.1
 (mu,nu|P) to Jab transformation           758.3
 Evaluate MP2 energy in the LIS            242.4
 Minimum requirement for LIS CCSD          258.9
 Actually allocated  for LIS CCSD          536.5
 Minimum requirement for LIS (T)           334.8
 Actually allocated  for LIS (T)           617.5
 
 ======================================================================
 ======================================================================
 
 
 
 ======================================================================
 ======================================================================
 
 Final local CC results:
 
 Minimum number of correlated electrons:         8       (  5.5%)
 Maximum number of correlated electrons:        74       ( 50.7%)
 Average number of correlated electrons:        12.6     (  8.6%)
 Minimum number of correlated orbitals:          8       (  3.0%)
 Maximum number of correlated orbitals:        131       ( 48.9%)
 Average number of correlated orbitals:         23.3     (  8.7%)
 
 CPU time for integral calculations [min]:                  1.573
 Wall time for integral calculations [min]:                 0.424
 
 CPU time for SCF calculation [min]:                       35.800
 Wall time for SCF calculation [min]:                       0.481
 
 CPU time for orbital localization [min]:                   0.392
 Wall time for orbital localization [min]:                  0.032
 
 CPU time for integral transformations [min]:             119.150
 Wall time for integral transformations [min]:              1.645
 
 Reference energy [au]:                                -10092.419381836253
 
 LMP2 correlation energy [au]:                             -2.653451935268
 Total LMP2 energy [au]:                               -10095.072833771521
 
 Total MP2 correction for dropped NAFs [au]:                0.000505148994
 Total MP2 correction [au]:                                -0.066660133500
 
 CPU time for CCSD calculations [min]:                     20.559
 Total CPU time for CCSD [min]:                           177.474
 Wall time for CCSD calculations [min]:                     0.306
 Total wall time for CCSD [min]:                            2.890
 
 CCSD correlation energy [au]:                             -2.636403410656
 Total CCSD energy [au]:                               -10095.055785246908
 CCSD correlation energy + 0.5 MP2 corrections [au]:       -2.669733477406
 Total LNO-CCSD energy with MP2 corrections [au]:      -10095.089115313658
 
 CPU time for (T) corrections [min]:                       19.277
 Total CPU time for CCSD(T) [min]:                        196.751
 Wall time for (T) corrections [min]:                       0.287
 Total wall time for CCSD(T) [min]:                         3.177
 
 Total (T) correlation energy contribution [au]:           -0.032033587128
 Total (T) correlation energy+0.5 MP2 correction [au]:     -0.065363653878
 CCSD(T) correlation energy [au]:                          -2.668436997784
 Total CCSD(T) energy [au]:                            -10095.087818834038
 CCSD(T) correlation energy + MP2 corrections [au]:        -2.735097131284
 Total LNO-CCSD(T) energy with MP2 corrections [au]:   -10095.154478967537
 
 ======================================================================
 ======================================================================
 
 ************************ 2021-11-07 18:33:27 *************************
                      Normal termination of mrcc.
 **********************************************************************
