
                                 *****************
                                 * O   R   C   A *
                                 *****************

                                            #,                                       
                                            ###                                      
                                            ####                                     
                                            #####                                    
                                            ######                                   
                                           ########,                                 
                                     ,,################,,,,,                         
                               ,,#################################,,                 
                          ,,##########################################,,             
                       ,#########################################, ''#####,          
                    ,#############################################,,   '####,        
                  ,##################################################,,,,####,       
                ,###########''''           ''''###############################       
              ,#####''   ,,,,##########,,,,          '''####'''          '####       
            ,##' ,,,,###########################,,,                        '##       
           ' ,,###''''                  '''############,,,                           
         ,,##''                                '''############,,,,        ,,,,,,###''
      ,#''                                            '''#######################'''  
     '                                                          ''''####''''         
             ,#######,   #######,   ,#######,      ##                                
            ,#'     '#,  ##    ##  ,#'     '#,    #''#        ######   ,####,        
            ##       ##  ##   ,#'  ##            #'  '#       #        #'  '#        
            ##       ##  #######   ##           ,######,      #####,   #    #        
            '#,     ,#'  ##    ##  '#,     ,#' ,#      #,         ##   #,  ,#        
             '#######'   ##     ##  '#######'  #'      '#     #####' # '####'        



                  #######################################################
                  #                        -***-                        #
                  #          Department of theory and spectroscopy      #
                  #    Directorship and core code : Frank Neese         #
                  #        Max Planck Institute fuer Kohlenforschung    #
                  #                Kaiser Wilhelm Platz 1               #
                  #                 D-45470 Muelheim/Ruhr               #
                  #                      Germany                        #
                  #                                                     #
                  #                  All rights reserved                #
                  #                        -***-                        #
                  #######################################################


                         Program Version 5.0.1 -  RELEASE  -


 With contributions from (in alphabetic order):
   Daniel Aravena         : Magnetic Suceptibility
   Michael Atanasov       : Ab Initio Ligand Field Theory (pilot matlab implementation)
   Alexander A. Auer      : GIAO ZORA, VPT2 properties, NMR spectrum
   Ute Becker             : Parallelization
   Giovanni Bistoni       : ED, misc. LED, open-shell LED, HFLD
   Martin Brehm           : Molecular dynamics
   Dmytro Bykov           : SCF Hessian
   Vijay G. Chilkuri      : MRCI spin determinant printing, contributions to CSF-ICE
   Dipayan Datta          : RHF DLPNO-CCSD density
   Achintya Kumar Dutta   : EOM-CC, STEOM-CC
   Dmitry Ganyushin       : Spin-Orbit,Spin-Spin,Magnetic field MRCI
   Miquel Garcia          : C-PCM and meta-GGA Hessian, CC/C-PCM, Gaussian charge scheme
   Yang Guo               : DLPNO-NEVPT2, F12-NEVPT2, CIM, IAO-localization
   Andreas Hansen         : Spin unrestricted coupled pair/coupled cluster methods
   Benjamin Helmich-Paris : MC-RPA, TRAH-SCF, COSX integrals
   Lee Huntington         : MR-EOM, pCC
   Robert Izsak           : Overlap fitted RIJCOSX, COSX-SCS-MP3, EOM
   Marcus Kettner         : VPT2
   Christian Kollmar      : KDIIS, OOCD, Brueckner-CCSD(T), CCSD density, CASPT2, CASPT2-K
   Simone Kossmann        : Meta GGA functionals, TD-DFT gradient, OOMP2, MP2 Hessian
   Martin Krupicka        : Initial AUTO-CI
   Lucas Lang             : DCDCAS
   Marvin Lechner         : AUTO-CI (C++ implementation), FIC-MRCC
   Dagmar Lenk            : GEPOL surface, SMD
   Dimitrios Liakos       : Extrapolation schemes; Compound Job, initial MDCI parallelization
   Dimitrios Manganas     : Further ROCIS development; embedding schemes
   Dimitrios Pantazis     : SARC Basis sets
   Anastasios Papadopoulos: AUTO-CI, single reference methods and gradients
   Taras Petrenko         : DFT Hessian,TD-DFT gradient, ASA, ECA, R-Raman, ABS, FL, XAS/XES, NRVS
   Peter Pinski           : DLPNO-MP2, DLPNO-MP2 Gradient
   Christoph Reimann      : Effective Core Potentials
   Marius Retegan         : Local ZFS, SOC
   Christoph Riplinger    : Optimizer, TS searches, QM/MM, DLPNO-CCSD(T), (RO)-DLPNO pert. Triples
   Tobias Risthaus        : Range-separated hybrids, TD-DFT gradient, RPA, STAB
   Michael Roemelt        : Original ROCIS implementation
   Masaaki Saitow         : Open-shell DLPNO-CCSD energy and density
   Barbara Sandhoefer     : DKH picture change effects
   Avijit Sen             : IP-ROCIS
   Kantharuban Sivalingam : CASSCF convergence, NEVPT2, FIC-MRCI
   Bernardo de Souza      : ESD, SOC TD-DFT
   Georgi Stoychev        : AutoAux, RI-MP2 NMR, DLPNO-MP2 response
   Willem Van den Heuvel  : Paramagnetic NMR
   Boris Wezisla          : Elementary symmetry handling
   Frank Wennmohs         : Technical directorship


 We gratefully acknowledge several colleagues who have allowed us to
 interface, adapt or use parts of their codes:
   Stefan Grimme, W. Hujo, H. Kruse, P. Pracht,  : VdW corrections, initial TS optimization,
                  C. Bannwarth, S. Ehlert          DFT functionals, gCP, sTDA/sTD-DF
   Ed Valeev, F. Pavosevic, A. Kumar             : LibInt (2-el integral package), F12 methods
   Garnet Chan, S. Sharma, J. Yang, R. Olivares  : DMRG
   Ulf Ekstrom                                   : XCFun DFT Library
   Mihaly Kallay                                 : mrcc  (arbitrary order and MRCC methods)
   Jiri Pittner, Ondrej Demel                    : Mk-CCSD
   Frank Weinhold                                : gennbo (NPA and NBO analysis)
   Christopher J. Cramer and Donald G. Truhlar   : smd solvation model
   Lars Goerigk                                  : TD-DFT with DH, B97 family of functionals
   V. Asgeirsson, H. Jonsson                     : NEB implementation
   FAccTs GmbH                                   : IRC, NEB, NEB-TS, DLPNO-Multilevel, CI-OPT
                                                   MM, QMMM, 2- and 3-layer-ONIOM, Crystal-QMMM,
                                                   LR-CPCM, SF, NACMEs, symmetry and pop. for TD-DFT,
                                                   nearIR, NL-DFT gradient (VV10), updates on ESD,
                                                   ML-optimized integration grids
   S Lehtola, MJT Oliveira, MAL Marques          : LibXC Library
   Liviu Ungur et al                             : ANISO software


 Your calculation uses the libint2 library for the computation of 2-el integrals
 For citations please refer to: http://libint.valeyev.net

 Your ORCA version has been built with support for libXC version: 5.1.0
 For citations please refer to: https://tddft.org/programs/libxc/

 This ORCA versions uses:
   CBLAS   interface :  Fast vector & matrix operations
   LAPACKE interface :  Fast linear algebra routines
   SCALAPACK package :  Parallel linear algebra routines
   Shared memory     :  Shared parallel matrices
   BLAS/LAPACK       :  OpenBLAS 0.3.15  USE64BITINT DYNAMIC_ARCH NO_AFFINITY SkylakeX SINGLE_THREADED
        Core in use  :  SkylakeX
   Copyright (c) 2011-2014, The OpenBLAS Project


SCAN-COORDS
================================================================================

----- Orbital basis set information -----
Your calculation utilizes the basis: def2-SVP
   F. Weigend and R. Ahlrichs, Phys. Chem. Chem. Phys. 7, 3297 (2005).

----- AuxJ basis set information -----
Your calculation utilizes the auxiliary basis: def2/J
   F. Weigend, Phys. Chem. Chem. Phys. 8, 1057 (2006).

================================================================================
                                        WARNINGS
                       Please study these warnings very carefully!
================================================================================

WARNING: The globally-selected AuxJ basis set is optimized for use with ECPs
         Make sure a suitable alternative is explicitly given all heavy elements (Z>36)

INFO   : the flag for use of the SHARK integral package has been found!

================================================================================
                                       INPUT FILE
================================================================================
NAME = orca.inp
|  1> ! NormalSCF SlowConv DIIS NOTRAH
|  2> %maxcore 18000
|  3> %pal
|  4>   nprocs 16
|  5> end
|  6> %pointcharges "orca.bq"
|  7> %method
|  8>   Method DFT
|  9>   Functional PBE
| 10>   RI on
| 11>   RunTyp Energy
| 12> end
| 13> %basis
| 14>   Basis "def2-SVP"
| 15>   Aux "def2/J"
| 16> end
| 17> %scf
| 18>   HFTyp rks
| 19>   Guess Hueckel
| 20>   AutoStart True
| 21>   SCFMode Direct
| 22>   MaxIter 1000
| 23>   sthresh 1e-6
| 24> end
| 25> %coords
| 26>   CTyp xyz
| 27>   Mult 1
| 28>   Units angs
| 29>   Charge 0
| 30>   coords
| 31> O                       0.00000000000    0.00000000000    0.00000000000
| 32> Ti                      0.00000000000    1.48054676798   -1.27209143018
| 33> Ti                      0.00000000000   -1.48054676798   -1.27209143018
| 34> Ti                      0.00000000000    0.00000000000    1.98192821856
| 35> O                      -0.00000000000    0.00000000000   -2.54418286035
| 36> O                      -1.27209143018    1.48054676798    1.98192821856
| 37> O                       1.27209143018    1.48054676798    1.98192821856
| 38> O                       1.27209143018   -1.48054676798    1.98192821856
| 39> O                      -1.27209143018   -1.48054676798    1.98192821856
| 40> O                      -1.98192821856    1.48054676798   -1.27209143018
| 41> O                       1.98192821856    1.48054676798   -1.27209143018
| 42> O                       1.98192821856   -1.48054676798   -1.27209143018
| 43> O                      -1.98192821856   -1.48054676798   -1.27209143018
| 44> O                       0.00000000000    2.96109353596    0.00000000000
| 45> O                       0.00000000000   -2.96109353596    0.00000000000
| 46> O                      -3.25401964873    0.00000000000    0.70983678838
| 47> O                       3.25401964873    0.00000000000    0.70983678838
| 48> Ti                     -3.25401964873    0.00000000000   -1.27209143018
| 49> Ti                      3.25401964873    0.00000000000   -1.27209143018
| 50> Ti                      0.00000000000    2.96109353596    1.98192821856
| 51> Ti                      0.00000000000   -2.96109353596    1.98192821856
| 52> O                      -0.00000000000    2.96109353596   -2.54418286035
| 53> O                      -0.00000000000   -2.96109353596   -2.54418286035
| 54> O                      -0.00000000000    0.00000000000    3.96385643712
| 55> Ti                     -3.25401964873    1.48054676798    1.98192821856
| 56> Ti                      3.25401964873    1.48054676798    1.98192821856
| 57> Ti                      3.25401964873   -1.48054676798    1.98192821856
| 58> Ti                     -3.25401964873   -1.48054676798    1.98192821856
| 59> O                      -3.25401964873    2.96109353596    0.70983678838
| 60> O                       3.25401964873    2.96109353596    0.70983678838
| 61> O                       3.25401964873   -2.96109353596    0.70983678838
| 62> O                      -3.25401964873   -2.96109353596    0.70983678838
| 63> Ti                      0.00000000000    0.00000000000   -4.52611107891
| 64> Ti                     -3.25401964873    2.96109353596   -1.27209143018
| 65> Ti                      3.25401964873    2.96109353596   -1.27209143018
| 66> Ti                      3.25401964873   -2.96109353596   -1.27209143018
| 67> Ti                     -3.25401964873   -2.96109353596   -1.27209143018
| 68> O                      -3.25401964873    0.00000000000    3.25401964873
| 69> O                       3.25401964873    0.00000000000    3.25401964873
| 70> O                      -3.25401964873    0.00000000000   -3.25401964873
| 71> O                       3.25401964873    0.00000000000   -3.25401964873
| 72> Ti                      0.00000000000    4.44164030394   -1.27209143018
| 73> Ti                      0.00000000000   -4.44164030394   -1.27209143018
| 74> O                      -4.52611107891    1.48054676798   -1.27209143018
| 75> O                       4.52611107891    1.48054676798   -1.27209143018
| 76> O                       4.52611107891   -1.48054676798   -1.27209143018
| 77> O                      -4.52611107891   -1.48054676798   -1.27209143018
| 78> O                      -1.27209143018    1.48054676798   -4.52611107891
| 79> O                       1.27209143018    1.48054676798   -4.52611107891
| 80> O                       1.27209143018   -1.48054676798   -4.52611107891
| 81> O                      -1.27209143018   -1.48054676798   -4.52611107891
| 82> O                      -0.00000000000    2.96109353596    3.96385643712
| 83> O                      -0.00000000000   -2.96109353596    3.96385643712
| 84> O                      -1.27209143018    4.44164030394    1.98192821856
| 85> O                       1.27209143018    4.44164030394    1.98192821856
| 86> O                       1.27209143018   -4.44164030394    1.98192821856
| 87> O                      -1.27209143018   -4.44164030394    1.98192821856
| 88> O                      -1.98192821856    4.44164030394   -1.27209143018
| 89> O                       1.98192821856    4.44164030394   -1.27209143018
| 90> O                       1.98192821856   -4.44164030394   -1.27209143018
| 91> O                      -1.98192821856   -4.44164030394   -1.27209143018
| 92> Ti                      0.00000000000    2.96109353596   -4.52611107891
| 93> Ti                      0.00000000000   -2.96109353596   -4.52611107891
| 94> Ti                      0.00000000000    1.48054676798    5.23594786729
| 95> Ti                      0.00000000000   -1.48054676798    5.23594786729
| 96> O                      -3.25401964873    2.96109353596    3.25401964873
| 97> O                       3.25401964873    2.96109353596    3.25401964873
| 98> O                       3.25401964873   -2.96109353596    3.25401964873
| 99> O                      -3.25401964873   -2.96109353596    3.25401964873
|100> O                      -3.25401964873    2.96109353596   -3.25401964873
|101> O                       3.25401964873    2.96109353596   -3.25401964873
|102> O                       3.25401964873   -2.96109353596   -3.25401964873
|103> O                      -3.25401964873   -2.96109353596   -3.25401964873
|104> Ti                     -3.25401964873    1.48054676798   -4.52611107891
|105> Ti                      3.25401964873    1.48054676798   -4.52611107891
|106> Ti                      3.25401964873   -1.48054676798   -4.52611107891
|107> Ti                     -3.25401964873   -1.48054676798   -4.52611107891
|108> O                      -1.98192821856    1.48054676798    5.23594786729
|109> O                       1.98192821856    1.48054676798    5.23594786729
|110> O                       1.98192821856   -1.48054676798    5.23594786729
|111> O                      -1.98192821856   -1.48054676798    5.23594786729
|112> O                      -5.23594786729    1.48054676798    1.98192821856
|113> O                       5.23594786729    1.48054676798    1.98192821856
|114> O                       5.23594786729   -1.48054676798    1.98192821856
|115> O                      -5.23594786729   -1.48054676798    1.98192821856
|116> Ti                     -3.25401964873    4.44164030394    1.98192821856
|117> Ti                      3.25401964873    4.44164030394    1.98192821856
|118> Ti                      3.25401964873   -4.44164030394    1.98192821856
|119> Ti                     -3.25401964873   -4.44164030394    1.98192821856
|120> O                       0.00000000000    5.92218707193    0.00000000000
|121> O                       0.00000000000   -5.92218707193    0.00000000000
|122> Ti                     -3.25401964873    0.00000000000    5.23594786729
|123> Ti                      3.25401964873    0.00000000000    5.23594786729
|124> Ti                      0.00000000000    5.92218707193    1.98192821856
|125> Ti                      0.00000000000   -5.92218707193    1.98192821856
|126> O                      -0.00000000000    5.92218707193   -2.54418286035
|127> O                      -0.00000000000   -5.92218707193   -2.54418286035
|128> O                      -4.52611107891    4.44164030394   -1.27209143018
|129> O                       4.52611107891    4.44164030394   -1.27209143018
|130> O                       4.52611107891   -4.44164030394   -1.27209143018
|131> O                      -4.52611107891   -4.44164030394   -1.27209143018
|132> O                      -1.27209143018    4.44164030394   -4.52611107891
|133> O                       1.27209143018    4.44164030394   -4.52611107891
|134> O                       1.27209143018   -4.44164030394   -4.52611107891
|135> O                      -1.27209143018   -4.44164030394   -4.52611107891
|136> O                      -6.50803929747    0.00000000000    0.00000000000
|137> O                       6.50803929747    0.00000000000    0.00000000000
|138> O                       0.00000000000    0.00000000000   -6.50803929747
|139> O                      -3.25401964873    0.00000000000   -5.79820250908
|140> O                       3.25401964873    0.00000000000   -5.79820250908
|141> O                      -3.25401964873    5.92218707193    0.70983678838
|142> O                       3.25401964873    5.92218707193    0.70983678838
|143> O                       3.25401964873   -5.92218707193    0.70983678838
|144> O                      -3.25401964873   -5.92218707193    0.70983678838
|145> Ti                     -6.50803929747    1.48054676798   -1.27209143018
|146> Ti                      6.50803929747    1.48054676798   -1.27209143018
|147> Ti                      6.50803929747   -1.48054676798   -1.27209143018
|148> Ti                     -6.50803929747   -1.48054676798   -1.27209143018
|149> Ti                     -6.50803929747    0.00000000000    1.98192821856
|150> Ti                      6.50803929747    0.00000000000    1.98192821856
|151> Ti>    4.00000000000   -3.25401964873    2.96109353596    5.23594786729
|152> NewECP
|153> N_core 0
|154>   lmax f
|155>   s 2
|156>    1      0.860000       9.191690  2
|157>    2      0.172000       0.008301  2
|158>   p 2
|159>    1      0.860000      17.997720  2
|160>    2      0.172000      -0.032600  2
|161>   d 2
|162>    1      1.600000      -9.504310  2
|163>    2      0.320000      -0.151370  2
|164>   f 1
|165>    1      1.000000000    0.000000000 2
|166> end
|167> Ti>    4.00000000000    3.25401964873    2.96109353596    5.23594786729
|168> NewECP
|169> N_core 0
|170>   lmax f
|171>   s 2
|172>    1      0.860000       9.191690  2
|173>    2      0.172000       0.008301  2
|174>   p 2
|175>    1      0.860000      17.997720  2
|176>    2      0.172000      -0.032600  2
|177>   d 2
|178>    1      1.600000      -9.504310  2
|179>    2      0.320000      -0.151370  2
|180>   f 1
|181>    1      1.000000000    0.000000000 2
|182> end
|183> Ti>    4.00000000000    3.25401964873   -2.96109353596    5.23594786729
|184> NewECP
|185> N_core 0
|186>   lmax f
|187>   s 2
|188>    1      0.860000       9.191690  2
|189>    2      0.172000       0.008301  2
|190>   p 2
|191>    1      0.860000      17.997720  2
|192>    2      0.172000      -0.032600  2
|193>   d 2
|194>    1      1.600000      -9.504310  2
|195>    2      0.320000      -0.151370  2
|196>   f 1
|197>    1      1.000000000    0.000000000 2
|198> end
|199> Ti>    4.00000000000   -3.25401964873   -2.96109353596    5.23594786729
|200> NewECP
|201> N_core 0
|202>   lmax f
|203>   s 2
|204>    1      0.860000       9.191690  2
|205>    2      0.172000       0.008301  2
|206>   p 2
|207>    1      0.860000      17.997720  2
|208>    2      0.172000      -0.032600  2
|209>   d 2
|210>    1      1.600000      -9.504310  2
|211>    2      0.320000      -0.151370  2
|212>   f 1
|213>    1      1.000000000    0.000000000 2
|214> end
|215> Ti>    4.00000000000    0.00000000000    4.44164030394    5.23594786729
|216> NewECP
|217> N_core 0
|218>   lmax f
|219>   s 2
|220>    1      0.860000       9.191690  2
|221>    2      0.172000       0.008301  2
|222>   p 2
|223>    1      0.860000      17.997720  2
|224>    2      0.172000      -0.032600  2
|225>   d 2
|226>    1      1.600000      -9.504310  2
|227>    2      0.320000      -0.151370  2
|228>   f 1
|229>    1      1.000000000    0.000000000 2
|230> end
|231> Ti>    4.00000000000    0.00000000000   -4.44164030394    5.23594786729
|232> NewECP
|233> N_core 0
|234>   lmax f
|235>   s 2
|236>    1      0.860000       9.191690  2
|237>    2      0.172000       0.008301  2
|238>   p 2
|239>    1      0.860000      17.997720  2
|240>    2      0.172000      -0.032600  2
|241>   d 2
|242>    1      1.600000      -9.504310  2
|243>    2      0.320000      -0.151370  2
|244>   f 1
|245>    1      1.000000000    0.000000000 2
|246> end
|247> Ti>    4.00000000000   -3.25401964873    5.92218707193   -1.27209143018
|248> NewECP
|249> N_core 0
|250>   lmax f
|251>   s 2
|252>    1      0.860000       9.191690  2
|253>    2      0.172000       0.008301  2
|254>   p 2
|255>    1      0.860000      17.997720  2
|256>    2      0.172000      -0.032600  2
|257>   d 2
|258>    1      1.600000      -9.504310  2
|259>    2      0.320000      -0.151370  2
|260>   f 1
|261>    1      1.000000000    0.000000000 2
|262> end
|263> Ti>    4.00000000000    3.25401964873    5.92218707193   -1.27209143018
|264> NewECP
|265> N_core 0
|266>   lmax f
|267>   s 2
|268>    1      0.860000       9.191690  2
|269>    2      0.172000       0.008301  2
|270>   p 2
|271>    1      0.860000      17.997720  2
|272>    2      0.172000      -0.032600  2
|273>   d 2
|274>    1      1.600000      -9.504310  2
|275>    2      0.320000      -0.151370  2
|276>   f 1
|277>    1      1.000000000    0.000000000 2
|278> end
|279> Ti>    4.00000000000    3.25401964873   -5.92218707193   -1.27209143018
|280> NewECP
|281> N_core 0
|282>   lmax f
|283>   s 2
|284>    1      0.860000       9.191690  2
|285>    2      0.172000       0.008301  2
|286>   p 2
|287>    1      0.860000      17.997720  2
|288>    2      0.172000      -0.032600  2
|289>   d 2
|290>    1      1.600000      -9.504310  2
|291>    2      0.320000      -0.151370  2
|292>   f 1
|293>    1      1.000000000    0.000000000 2
|294> end
|295> Ti>    4.00000000000   -3.25401964873   -5.92218707193   -1.27209143018
|296> NewECP
|297> N_core 0
|298>   lmax f
|299>   s 2
|300>    1      0.860000       9.191690  2
|301>    2      0.172000       0.008301  2
|302>   p 2
|303>    1      0.860000      17.997720  2
|304>    2      0.172000      -0.032600  2
|305>   d 2
|306>    1      1.600000      -9.504310  2
|307>    2      0.320000      -0.151370  2
|308>   f 1
|309>    1      1.000000000    0.000000000 2
|310> end
|311> Ti>    4.00000000000   -3.25401964873    4.44164030394   -4.52611107891
|312> NewECP
|313> N_core 0
|314>   lmax f
|315>   s 2
|316>    1      0.860000       9.191690  2
|317>    2      0.172000       0.008301  2
|318>   p 2
|319>    1      0.860000      17.997720  2
|320>    2      0.172000      -0.032600  2
|321>   d 2
|322>    1      1.600000      -9.504310  2
|323>    2      0.320000      -0.151370  2
|324>   f 1
|325>    1      1.000000000    0.000000000 2
|326> end
|327> Ti>    4.00000000000    3.25401964873    4.44164030394   -4.52611107891
|328> NewECP
|329> N_core 0
|330>   lmax f
|331>   s 2
|332>    1      0.860000       9.191690  2
|333>    2      0.172000       0.008301  2
|334>   p 2
|335>    1      0.860000      17.997720  2
|336>    2      0.172000      -0.032600  2
|337>   d 2
|338>    1      1.600000      -9.504310  2
|339>    2      0.320000      -0.151370  2
|340>   f 1
|341>    1      1.000000000    0.000000000 2
|342> end
|343> Ti>    4.00000000000    3.25401964873   -4.44164030394   -4.52611107891
|344> NewECP
|345> N_core 0
|346>   lmax f
|347>   s 2
|348>    1      0.860000       9.191690  2
|349>    2      0.172000       0.008301  2
|350>   p 2
|351>    1      0.860000      17.997720  2
|352>    2      0.172000      -0.032600  2
|353>   d 2
|354>    1      1.600000      -9.504310  2
|355>    2      0.320000      -0.151370  2
|356>   f 1
|357>    1      1.000000000    0.000000000 2
|358> end
|359> Ti>    4.00000000000   -3.25401964873   -4.44164030394   -4.52611107891
|360> NewECP
|361> N_core 0
|362>   lmax f
|363>   s 2
|364>    1      0.860000       9.191690  2
|365>    2      0.172000       0.008301  2
|366>   p 2
|367>    1      0.860000      17.997720  2
|368>    2      0.172000      -0.032600  2
|369>   d 2
|370>    1      1.600000      -9.504310  2
|371>    2      0.320000      -0.151370  2
|372>   f 1
|373>    1      1.000000000    0.000000000 2
|374> end
|375> Ti>    4.00000000000   -6.50803929747    2.96109353596    1.98192821856
|376> NewECP
|377> N_core 0
|378>   lmax f
|379>   s 2
|380>    1      0.860000       9.191690  2
|381>    2      0.172000       0.008301  2
|382>   p 2
|383>    1      0.860000      17.997720  2
|384>    2      0.172000      -0.032600  2
|385>   d 2
|386>    1      1.600000      -9.504310  2
|387>    2      0.320000      -0.151370  2
|388>   f 1
|389>    1      1.000000000    0.000000000 2
|390> end
|391> Ti>    4.00000000000    6.50803929747    2.96109353596    1.98192821856
|392> NewECP
|393> N_core 0
|394>   lmax f
|395>   s 2
|396>    1      0.860000       9.191690  2
|397>    2      0.172000       0.008301  2
|398>   p 2
|399>    1      0.860000      17.997720  2
|400>    2      0.172000      -0.032600  2
|401>   d 2
|402>    1      1.600000      -9.504310  2
|403>    2      0.320000      -0.151370  2
|404>   f 1
|405>    1      1.000000000    0.000000000 2
|406> end
|407> Ti>    4.00000000000    6.50803929747   -2.96109353596    1.98192821856
|408> NewECP
|409> N_core 0
|410>   lmax f
|411>   s 2
|412>    1      0.860000       9.191690  2
|413>    2      0.172000       0.008301  2
|414>   p 2
|415>    1      0.860000      17.997720  2
|416>    2      0.172000      -0.032600  2
|417>   d 2
|418>    1      1.600000      -9.504310  2
|419>    2      0.320000      -0.151370  2
|420>   f 1
|421>    1      1.000000000    0.000000000 2
|422> end
|423> Ti>    4.00000000000   -6.50803929747   -2.96109353596    1.98192821856
|424> NewECP
|425> N_core 0
|426>   lmax f
|427>   s 2
|428>    1      0.860000       9.191690  2
|429>    2      0.172000       0.008301  2
|430>   p 2
|431>    1      0.860000      17.997720  2
|432>    2      0.172000      -0.032600  2
|433>   d 2
|434>    1      1.600000      -9.504310  2
|435>    2      0.320000      -0.151370  2
|436>   f 1
|437>    1      1.000000000    0.000000000 2
|438> end
|439> Ti>    4.00000000000    0.00000000000    5.92218707193   -4.52611107891
|440> NewECP
|441> N_core 0
|442>   lmax f
|443>   s 2
|444>    1      0.860000       9.191690  2
|445>    2      0.172000       0.008301  2
|446>   p 2
|447>    1      0.860000      17.997720  2
|448>    2      0.172000      -0.032600  2
|449>   d 2
|450>    1      1.600000      -9.504310  2
|451>    2      0.320000      -0.151370  2
|452>   f 1
|453>    1      1.000000000    0.000000000 2
|454> end
|455> Ti>    4.00000000000    0.00000000000   -5.92218707193   -4.52611107891
|456> NewECP
|457> N_core 0
|458>   lmax f
|459>   s 2
|460>    1      0.860000       9.191690  2
|461>    2      0.172000       0.008301  2
|462>   p 2
|463>    1      0.860000      17.997720  2
|464>    2      0.172000      -0.032600  2
|465>   d 2
|466>    1      1.600000      -9.504310  2
|467>    2      0.320000      -0.151370  2
|468>   f 1
|469>    1      1.000000000    0.000000000 2
|470> end
|471> Ti>    4.00000000000    0.00000000000    7.40273383991   -1.27209143018
|472> NewECP
|473> N_core 0
|474>   lmax f
|475>   s 2
|476>    1      0.860000       9.191690  2
|477>    2      0.172000       0.008301  2
|478>   p 2
|479>    1      0.860000      17.997720  2
|480>    2      0.172000      -0.032600  2
|481>   d 2
|482>    1      1.600000      -9.504310  2
|483>    2      0.320000      -0.151370  2
|484>   f 1
|485>    1      1.000000000    0.000000000 2
|486> end
|487> Ti>    4.00000000000    0.00000000000   -7.40273383991   -1.27209143018
|488> NewECP
|489> N_core 0
|490>   lmax f
|491>   s 2
|492>    1      0.860000       9.191690  2
|493>    2      0.172000       0.008301  2
|494>   p 2
|495>    1      0.860000      17.997720  2
|496>    2      0.172000      -0.032600  2
|497>   d 2
|498>    1      1.600000      -9.504310  2
|499>    2      0.320000      -0.151370  2
|500>   f 1
|501>    1      1.000000000    0.000000000 2
|502> end
|503> Ti>    4.00000000000    0.00000000000    1.48054676798   -7.78013072764
|504> NewECP
|505> N_core 0
|506>   lmax f
|507>   s 2
|508>    1      0.860000       9.191690  2
|509>    2      0.172000       0.008301  2
|510>   p 2
|511>    1      0.860000      17.997720  2
|512>    2      0.172000      -0.032600  2
|513>   d 2
|514>    1      1.600000      -9.504310  2
|515>    2      0.320000      -0.151370  2
|516>   f 1
|517>    1      1.000000000    0.000000000 2
|518> end
|519> Ti>    4.00000000000    0.00000000000   -1.48054676798   -7.78013072764
|520> NewECP
|521> N_core 0
|522>   lmax f
|523>   s 2
|524>    1      0.860000       9.191690  2
|525>    2      0.172000       0.008301  2
|526>   p 2
|527>    1      0.860000      17.997720  2
|528>    2      0.172000      -0.032600  2
|529>   d 2
|530>    1      1.600000      -9.504310  2
|531>    2      0.320000      -0.151370  2
|532>   f 1
|533>    1      1.000000000    0.000000000 2
|534> end
|535> Ti>    4.00000000000   -6.50803929747    0.00000000000   -4.52611107891
|536> NewECP
|537> N_core 0
|538>   lmax f
|539>   s 2
|540>    1      0.860000       9.191690  2
|541>    2      0.172000       0.008301  2
|542>   p 2
|543>    1      0.860000      17.997720  2
|544>    2      0.172000      -0.032600  2
|545>   d 2
|546>    1      1.600000      -9.504310  2
|547>    2      0.320000      -0.151370  2
|548>   f 1
|549>    1      1.000000000    0.000000000 2
|550> end
|551> Ti>    4.00000000000    6.50803929747    0.00000000000   -4.52611107891
|552> NewECP
|553> N_core 0
|554>   lmax f
|555>   s 2
|556>    1      0.860000       9.191690  2
|557>    2      0.172000       0.008301  2
|558>   p 2
|559>    1      0.860000      17.997720  2
|560>    2      0.172000      -0.032600  2
|561>   d 2
|562>    1      1.600000      -9.504310  2
|563>    2      0.320000      -0.151370  2
|564>   f 1
|565>    1      1.000000000    0.000000000 2
|566> end
|567> Ti>    4.00000000000   -6.50803929747    4.44164030394   -1.27209143018
|568> NewECP
|569> N_core 0
|570>   lmax f
|571>   s 2
|572>    1      0.860000       9.191690  2
|573>    2      0.172000       0.008301  2
|574>   p 2
|575>    1      0.860000      17.997720  2
|576>    2      0.172000      -0.032600  2
|577>   d 2
|578>    1      1.600000      -9.504310  2
|579>    2      0.320000      -0.151370  2
|580>   f 1
|581>    1      1.000000000    0.000000000 2
|582> end
|583> Ti>    4.00000000000    6.50803929747    4.44164030394   -1.27209143018
|584> NewECP
|585> N_core 0
|586>   lmax f
|587>   s 2
|588>    1      0.860000       9.191690  2
|589>    2      0.172000       0.008301  2
|590>   p 2
|591>    1      0.860000      17.997720  2
|592>    2      0.172000      -0.032600  2
|593>   d 2
|594>    1      1.600000      -9.504310  2
|595>    2      0.320000      -0.151370  2
|596>   f 1
|597>    1      1.000000000    0.000000000 2
|598> end
|599> Ti>    4.00000000000    6.50803929747   -4.44164030394   -1.27209143018
|600> NewECP
|601> N_core 0
|602>   lmax f
|603>   s 2
|604>    1      0.860000       9.191690  2
|605>    2      0.172000       0.008301  2
|606>   p 2
|607>    1      0.860000      17.997720  2
|608>    2      0.172000      -0.032600  2
|609>   d 2
|610>    1      1.600000      -9.504310  2
|611>    2      0.320000      -0.151370  2
|612>   f 1
|613>    1      1.000000000    0.000000000 2
|614> end
|615> Ti>    4.00000000000   -6.50803929747   -4.44164030394   -1.27209143018
|616> NewECP
|617> N_core 0
|618>   lmax f
|619>   s 2
|620>    1      0.860000       9.191690  2
|621>    2      0.172000       0.008301  2
|622>   p 2
|623>    1      0.860000      17.997720  2
|624>    2      0.172000      -0.032600  2
|625>   d 2
|626>    1      1.600000      -9.504310  2
|627>    2      0.320000      -0.151370  2
|628>   f 1
|629>    1      1.000000000    0.000000000 2
|630> end
|631> Ti>    4.00000000000   -3.25401964873    7.40273383991    1.98192821856
|632> NewECP
|633> N_core 0
|634>   lmax f
|635>   s 2
|636>    1      0.860000       9.191690  2
|637>    2      0.172000       0.008301  2
|638>   p 2
|639>    1      0.860000      17.997720  2
|640>    2      0.172000      -0.032600  2
|641>   d 2
|642>    1      1.600000      -9.504310  2
|643>    2      0.320000      -0.151370  2
|644>   f 1
|645>    1      1.000000000    0.000000000 2
|646> end
|647> Ti>    4.00000000000    3.25401964873    7.40273383991    1.98192821856
|648> NewECP
|649> N_core 0
|650>   lmax f
|651>   s 2
|652>    1      0.860000       9.191690  2
|653>    2      0.172000       0.008301  2
|654>   p 2
|655>    1      0.860000      17.997720  2
|656>    2      0.172000      -0.032600  2
|657>   d 2
|658>    1      1.600000      -9.504310  2
|659>    2      0.320000      -0.151370  2
|660>   f 1
|661>    1      1.000000000    0.000000000 2
|662> end
|663> Ti>    4.00000000000    3.25401964873   -7.40273383991    1.98192821856
|664> NewECP
|665> N_core 0
|666>   lmax f
|667>   s 2
|668>    1      0.860000       9.191690  2
|669>    2      0.172000       0.008301  2
|670>   p 2
|671>    1      0.860000      17.997720  2
|672>    2      0.172000      -0.032600  2
|673>   d 2
|674>    1      1.600000      -9.504310  2
|675>    2      0.320000      -0.151370  2
|676>   f 1
|677>    1      1.000000000    0.000000000 2
|678> end
|679> Ti>    4.00000000000   -3.25401964873   -7.40273383991    1.98192821856
|680> NewECP
|681> N_core 0
|682>   lmax f
|683>   s 2
|684>    1      0.860000       9.191690  2
|685>    2      0.172000       0.008301  2
|686>   p 2
|687>    1      0.860000      17.997720  2
|688>    2      0.172000      -0.032600  2
|689>   d 2
|690>    1      1.600000      -9.504310  2
|691>    2      0.320000      -0.151370  2
|692>   f 1
|693>    1      1.000000000    0.000000000 2
|694> end
|695> Ti>    4.00000000000   -3.25401964873    0.00000000000   -7.78013072764
|696> NewECP
|697> N_core 0
|698>   lmax f
|699>   s 2
|700>    1      0.860000       9.191690  2
|701>    2      0.172000       0.008301  2
|702>   p 2
|703>    1      0.860000      17.997720  2
|704>    2      0.172000      -0.032600  2
|705>   d 2
|706>    1      1.600000      -9.504310  2
|707>    2      0.320000      -0.151370  2
|708>   f 1
|709>    1      1.000000000    0.000000000 2
|710> end
|711> Ti>    4.00000000000    3.25401964873    0.00000000000   -7.78013072764
|712> NewECP
|713> N_core 0
|714>   lmax f
|715>   s 2
|716>    1      0.860000       9.191690  2
|717>    2      0.172000       0.008301  2
|718>   p 2
|719>    1      0.860000      17.997720  2
|720>    2      0.172000      -0.032600  2
|721>   d 2
|722>    1      1.600000      -9.504310  2
|723>    2      0.320000      -0.151370  2
|724>   f 1
|725>    1      1.000000000    0.000000000 2
|726> end
|727> Ti>    4.00000000000   -6.50803929747    2.96109353596   -4.52611107891
|728> NewECP
|729> N_core 0
|730>   lmax f
|731>   s 2
|732>    1      0.860000       9.191690  2
|733>    2      0.172000       0.008301  2
|734>   p 2
|735>    1      0.860000      17.997720  2
|736>    2      0.172000      -0.032600  2
|737>   d 2
|738>    1      1.600000      -9.504310  2
|739>    2      0.320000      -0.151370  2
|740>   f 1
|741>    1      1.000000000    0.000000000 2
|742> end
|743> Ti>    4.00000000000    6.50803929747    2.96109353596   -4.52611107891
|744> NewECP
|745> N_core 0
|746>   lmax f
|747>   s 2
|748>    1      0.860000       9.191690  2
|749>    2      0.172000       0.008301  2
|750>   p 2
|751>    1      0.860000      17.997720  2
|752>    2      0.172000      -0.032600  2
|753>   d 2
|754>    1      1.600000      -9.504310  2
|755>    2      0.320000      -0.151370  2
|756>   f 1
|757>    1      1.000000000    0.000000000 2
|758> end
|759> Ti>    4.00000000000    6.50803929747   -2.96109353596   -4.52611107891
|760> NewECP
|761> N_core 0
|762>   lmax f
|763>   s 2
|764>    1      0.860000       9.191690  2
|765>    2      0.172000       0.008301  2
|766>   p 2
|767>    1      0.860000      17.997720  2
|768>    2      0.172000      -0.032600  2
|769>   d 2
|770>    1      1.600000      -9.504310  2
|771>    2      0.320000      -0.151370  2
|772>   f 1
|773>    1      1.000000000    0.000000000 2
|774> end
|775> Ti>    4.00000000000   -6.50803929747   -2.96109353596   -4.52611107891
|776> NewECP
|777> N_core 0
|778>   lmax f
|779>   s 2
|780>    1      0.860000       9.191690  2
|781>    2      0.172000       0.008301  2
|782>   p 2
|783>    1      0.860000      17.997720  2
|784>    2      0.172000      -0.032600  2
|785>   d 2
|786>    1      1.600000      -9.504310  2
|787>    2      0.320000      -0.151370  2
|788>   f 1
|789>    1      1.000000000    0.000000000 2
|790> end
|791> Ti>    4.00000000000   -6.50803929747    1.48054676798    5.23594786729
|792> NewECP
|793> N_core 0
|794>   lmax f
|795>   s 2
|796>    1      0.860000       9.191690  2
|797>    2      0.172000       0.008301  2
|798>   p 2
|799>    1      0.860000      17.997720  2
|800>    2      0.172000      -0.032600  2
|801>   d 2
|802>    1      1.600000      -9.504310  2
|803>    2      0.320000      -0.151370  2
|804>   f 1
|805>    1      1.000000000    0.000000000 2
|806> end
|807> Ti>    4.00000000000    6.50803929747    1.48054676798    5.23594786729
|808> NewECP
|809> N_core 0
|810>   lmax f
|811>   s 2
|812>    1      0.860000       9.191690  2
|813>    2      0.172000       0.008301  2
|814>   p 2
|815>    1      0.860000      17.997720  2
|816>    2      0.172000      -0.032600  2
|817>   d 2
|818>    1      1.600000      -9.504310  2
|819>    2      0.320000      -0.151370  2
|820>   f 1
|821>    1      1.000000000    0.000000000 2
|822> end
|823> Ti>    4.00000000000    6.50803929747   -1.48054676798    5.23594786729
|824> NewECP
|825> N_core 0
|826>   lmax f
|827>   s 2
|828>    1      0.860000       9.191690  2
|829>    2      0.172000       0.008301  2
|830>   p 2
|831>    1      0.860000      17.997720  2
|832>    2      0.172000      -0.032600  2
|833>   d 2
|834>    1      1.600000      -9.504310  2
|835>    2      0.320000      -0.151370  2
|836>   f 1
|837>    1      1.000000000    0.000000000 2
|838> end
|839> Ti>    4.00000000000   -6.50803929747   -1.48054676798    5.23594786729
|840> NewECP
|841> N_core 0
|842>   lmax f
|843>   s 2
|844>    1      0.860000       9.191690  2
|845>    2      0.172000       0.008301  2
|846>   p 2
|847>    1      0.860000      17.997720  2
|848>    2      0.172000      -0.032600  2
|849>   d 2
|850>    1      1.600000      -9.504310  2
|851>    2      0.320000      -0.151370  2
|852>   f 1
|853>    1      1.000000000    0.000000000 2
|854> end
|855> Ti>    4.00000000000    0.00000000000    0.00000000000    8.48996751602
|856> NewECP
|857> N_core 0
|858>   lmax f
|859>   s 2
|860>    1      0.860000       9.191690  2
|861>    2      0.172000       0.008301  2
|862>   p 2
|863>    1      0.860000      17.997720  2
|864>    2      0.172000      -0.032600  2
|865>   d 2
|866>    1      1.600000      -9.504310  2
|867>    2      0.320000      -0.151370  2
|868>   f 1
|869>    1      1.000000000    0.000000000 2
|870> end
|871> Ti>    4.00000000000   -3.25401964873    5.92218707193    5.23594786729
|872> NewECP
|873> N_core 0
|874>   lmax f
|875>   s 2
|876>    1      0.860000       9.191690  2
|877>    2      0.172000       0.008301  2
|878>   p 2
|879>    1      0.860000      17.997720  2
|880>    2      0.172000      -0.032600  2
|881>   d 2
|882>    1      1.600000      -9.504310  2
|883>    2      0.320000      -0.151370  2
|884>   f 1
|885>    1      1.000000000    0.000000000 2
|886> end
|887> Ti>    4.00000000000    3.25401964873    5.92218707193    5.23594786729
|888> NewECP
|889> N_core 0
|890>   lmax f
|891>   s 2
|892>    1      0.860000       9.191690  2
|893>    2      0.172000       0.008301  2
|894>   p 2
|895>    1      0.860000      17.997720  2
|896>    2      0.172000      -0.032600  2
|897>   d 2
|898>    1      1.600000      -9.504310  2
|899>    2      0.320000      -0.151370  2
|900>   f 1
|901>    1      1.000000000    0.000000000 2
|902> end
|903> Ti>    4.00000000000    3.25401964873   -5.92218707193    5.23594786729
|904> NewECP
|905> N_core 0
|906>   lmax f
|907>   s 2
|908>    1      0.860000       9.191690  2
|909>    2      0.172000       0.008301  2
|910>   p 2
|911>    1      0.860000      17.997720  2
|912>    2      0.172000      -0.032600  2
|913>   d 2
|914>    1      1.600000      -9.504310  2
|915>    2      0.320000      -0.151370  2
|916>   f 1
|917>    1      1.000000000    0.000000000 2
|918> end
|919> Ti>    4.00000000000   -3.25401964873   -5.92218707193    5.23594786729
|920> NewECP
|921> N_core 0
|922>   lmax f
|923>   s 2
|924>    1      0.860000       9.191690  2
|925>    2      0.172000       0.008301  2
|926>   p 2
|927>    1      0.860000      17.997720  2
|928>    2      0.172000      -0.032600  2
|929>   d 2
|930>    1      1.600000      -9.504310  2
|931>    2      0.320000      -0.151370  2
|932>   f 1
|933>    1      1.000000000    0.000000000 2
|934> end
|935> Ti>    4.00000000000   -3.25401964873    2.96109353596   -7.78013072764
|936> NewECP
|937> N_core 0
|938>   lmax f
|939>   s 2
|940>    1      0.860000       9.191690  2
|941>    2      0.172000       0.008301  2
|942>   p 2
|943>    1      0.860000      17.997720  2
|944>    2      0.172000      -0.032600  2
|945>   d 2
|946>    1      1.600000      -9.504310  2
|947>    2      0.320000      -0.151370  2
|948>   f 1
|949>    1      1.000000000    0.000000000 2
|950> end
|951> Ti>    4.00000000000    3.25401964873    2.96109353596   -7.78013072764
|952> NewECP
|953> N_core 0
|954>   lmax f
|955>   s 2
|956>    1      0.860000       9.191690  2
|957>    2      0.172000       0.008301  2
|958>   p 2
|959>    1      0.860000      17.997720  2
|960>    2      0.172000      -0.032600  2
|961>   d 2
|962>    1      1.600000      -9.504310  2
|963>    2      0.320000      -0.151370  2
|964>   f 1
|965>    1      1.000000000    0.000000000 2
|966> end
|967> Ti>    4.00000000000    3.25401964873   -2.96109353596   -7.78013072764
|968> NewECP
|969> N_core 0
|970>   lmax f
|971>   s 2
|972>    1      0.860000       9.191690  2
|973>    2      0.172000       0.008301  2
|974>   p 2
|975>    1      0.860000      17.997720  2
|976>    2      0.172000      -0.032600  2
|977>   d 2
|978>    1      1.600000      -9.504310  2
|979>    2      0.320000      -0.151370  2
|980>   f 1
|981>    1      1.000000000    0.000000000 2
|982> end
|983> Ti>    4.00000000000   -3.25401964873   -2.96109353596   -7.78013072764
|984> NewECP
|985> N_core 0
|986>   lmax f
|987>   s 2
|988>    1      0.860000       9.191690  2
|989>    2      0.172000       0.008301  2
|990>   p 2
|991>    1      0.860000      17.997720  2
|992>    2      0.172000      -0.032600  2
|993>   d 2
|994>    1      1.600000      -9.504310  2
|995>    2      0.320000      -0.151370  2
|996>   f 1
|997>    1      1.000000000    0.000000000 2
|998> end
|999> Ti>    4.00000000000    0.00000000000    4.44164030394   -7.78013072764
|1000> NewECP
|1001> N_core 0
|1002>   lmax f
|1003>   s 2
|1004>    1      0.860000       9.191690  2
|1005>    2      0.172000       0.008301  2
|1006>   p 2
|1007>    1      0.860000      17.997720  2
|1008>    2      0.172000      -0.032600  2
|1009>   d 2
|1010>    1      1.600000      -9.504310  2
|1011>    2      0.320000      -0.151370  2
|1012>   f 1
|1013>    1      1.000000000    0.000000000 2
|1014> end
|1015> Ti>    4.00000000000    0.00000000000   -4.44164030394   -7.78013072764
|1016> NewECP
|1017> N_core 0
|1018>   lmax f
|1019>   s 2
|1020>    1      0.860000       9.191690  2
|1021>    2      0.172000       0.008301  2
|1022>   p 2
|1023>    1      0.860000      17.997720  2
|1024>    2      0.172000      -0.032600  2
|1025>   d 2
|1026>    1      1.600000      -9.504310  2
|1027>    2      0.320000      -0.151370  2
|1028>   f 1
|1029>    1      1.000000000    0.000000000 2
|1030> end
|1031> Ti>    4.00000000000    0.00000000000    2.96109353596    8.48996751602
|1032> NewECP
|1033> N_core 0
|1034>   lmax f
|1035>   s 2
|1036>    1      0.860000       9.191690  2
|1037>    2      0.172000       0.008301  2
|1038>   p 2
|1039>    1      0.860000      17.997720  2
|1040>    2      0.172000      -0.032600  2
|1041>   d 2
|1042>    1      1.600000      -9.504310  2
|1043>    2      0.320000      -0.151370  2
|1044>   f 1
|1045>    1      1.000000000    0.000000000 2
|1046> end
|1047> Ti>    4.00000000000    0.00000000000   -2.96109353596    8.48996751602
|1048> NewECP
|1049> N_core 0
|1050>   lmax f
|1051>   s 2
|1052>    1      0.860000       9.191690  2
|1053>    2      0.172000       0.008301  2
|1054>   p 2
|1055>    1      0.860000      17.997720  2
|1056>    2      0.172000      -0.032600  2
|1057>   d 2
|1058>    1      1.600000      -9.504310  2
|1059>    2      0.320000      -0.151370  2
|1060>   f 1
|1061>    1      1.000000000    0.000000000 2
|1062> end
|1063> Ti>    4.00000000000   -6.50803929747    5.92218707193    1.98192821856
|1064> NewECP
|1065> N_core 0
|1066>   lmax f
|1067>   s 2
|1068>    1      0.860000       9.191690  2
|1069>    2      0.172000       0.008301  2
|1070>   p 2
|1071>    1      0.860000      17.997720  2
|1072>    2      0.172000      -0.032600  2
|1073>   d 2
|1074>    1      1.600000      -9.504310  2
|1075>    2      0.320000      -0.151370  2
|1076>   f 1
|1077>    1      1.000000000    0.000000000 2
|1078> end
|1079> Ti>    4.00000000000    6.50803929747    5.92218707193    1.98192821856
|1080> NewECP
|1081> N_core 0
|1082>   lmax f
|1083>   s 2
|1084>    1      0.860000       9.191690  2
|1085>    2      0.172000       0.008301  2
|1086>   p 2
|1087>    1      0.860000      17.997720  2
|1088>    2      0.172000      -0.032600  2
|1089>   d 2
|1090>    1      1.600000      -9.504310  2
|1091>    2      0.320000      -0.151370  2
|1092>   f 1
|1093>    1      1.000000000    0.000000000 2
|1094> end
|1095> Ti>    4.00000000000    6.50803929747   -5.92218707193    1.98192821856
|1096> NewECP
|1097> N_core 0
|1098>   lmax f
|1099>   s 2
|1100>    1      0.860000       9.191690  2
|1101>    2      0.172000       0.008301  2
|1102>   p 2
|1103>    1      0.860000      17.997720  2
|1104>    2      0.172000      -0.032600  2
|1105>   d 2
|1106>    1      1.600000      -9.504310  2
|1107>    2      0.320000      -0.151370  2
|1108>   f 1
|1109>    1      1.000000000    0.000000000 2
|1110> end
|1111> Ti>    4.00000000000   -6.50803929747   -5.92218707193    1.98192821856
|1112> NewECP
|1113> N_core 0
|1114>   lmax f
|1115>   s 2
|1116>    1      0.860000       9.191690  2
|1117>    2      0.172000       0.008301  2
|1118>   p 2
|1119>    1      0.860000      17.997720  2
|1120>    2      0.172000      -0.032600  2
|1121>   d 2
|1122>    1      1.600000      -9.504310  2
|1123>    2      0.320000      -0.151370  2
|1124>   f 1
|1125>    1      1.000000000    0.000000000 2
|1126> end
|1127> Ti>    4.00000000000    0.00000000000    7.40273383991    5.23594786729
|1128> NewECP
|1129> N_core 0
|1130>   lmax f
|1131>   s 2
|1132>    1      0.860000       9.191690  2
|1133>    2      0.172000       0.008301  2
|1134>   p 2
|1135>    1      0.860000      17.997720  2
|1136>    2      0.172000      -0.032600  2
|1137>   d 2
|1138>    1      1.600000      -9.504310  2
|1139>    2      0.320000      -0.151370  2
|1140>   f 1
|1141>    1      1.000000000    0.000000000 2
|1142> end
|1143> Ti>    4.00000000000    0.00000000000   -7.40273383991    5.23594786729
|1144> NewECP
|1145> N_core 0
|1146>   lmax f
|1147>   s 2
|1148>    1      0.860000       9.191690  2
|1149>    2      0.172000       0.008301  2
|1150>   p 2
|1151>    1      0.860000      17.997720  2
|1152>    2      0.172000      -0.032600  2
|1153>   d 2
|1154>    1      1.600000      -9.504310  2
|1155>    2      0.320000      -0.151370  2
|1156>   f 1
|1157>    1      1.000000000    0.000000000 2
|1158> end
|1159> Ti>    4.00000000000    0.00000000000    8.88328060789    1.98192821856
|1160> NewECP
|1161> N_core 0
|1162>   lmax f
|1163>   s 2
|1164>    1      0.860000       9.191690  2
|1165>    2      0.172000       0.008301  2
|1166>   p 2
|1167>    1      0.860000      17.997720  2
|1168>    2      0.172000      -0.032600  2
|1169>   d 2
|1170>    1      1.600000      -9.504310  2
|1171>    2      0.320000      -0.151370  2
|1172>   f 1
|1173>    1      1.000000000    0.000000000 2
|1174> end
|1175> Ti>    4.00000000000    0.00000000000   -8.88328060789    1.98192821856
|1176> NewECP
|1177> N_core 0
|1178>   lmax f
|1179>   s 2
|1180>    1      0.860000       9.191690  2
|1181>    2      0.172000       0.008301  2
|1182>   p 2
|1183>    1      0.860000      17.997720  2
|1184>    2      0.172000      -0.032600  2
|1185>   d 2
|1186>    1      1.600000      -9.504310  2
|1187>    2      0.320000      -0.151370  2
|1188>   f 1
|1189>    1      1.000000000    0.000000000 2
|1190> end
|1191> Ti>    4.00000000000   -3.25401964873    1.48054676798    8.48996751602
|1192> NewECP
|1193> N_core 0
|1194>   lmax f
|1195>   s 2
|1196>    1      0.860000       9.191690  2
|1197>    2      0.172000       0.008301  2
|1198>   p 2
|1199>    1      0.860000      17.997720  2
|1200>    2      0.172000      -0.032600  2
|1201>   d 2
|1202>    1      1.600000      -9.504310  2
|1203>    2      0.320000      -0.151370  2
|1204>   f 1
|1205>    1      1.000000000    0.000000000 2
|1206> end
|1207> Ti>    4.00000000000    3.25401964873    1.48054676798    8.48996751602
|1208> NewECP
|1209> N_core 0
|1210>   lmax f
|1211>   s 2
|1212>    1      0.860000       9.191690  2
|1213>    2      0.172000       0.008301  2
|1214>   p 2
|1215>    1      0.860000      17.997720  2
|1216>    2      0.172000      -0.032600  2
|1217>   d 2
|1218>    1      1.600000      -9.504310  2
|1219>    2      0.320000      -0.151370  2
|1220>   f 1
|1221>    1      1.000000000    0.000000000 2
|1222> end
|1223> Ti>    4.00000000000    3.25401964873   -1.48054676798    8.48996751602
|1224> NewECP
|1225> N_core 0
|1226>   lmax f
|1227>   s 2
|1228>    1      0.860000       9.191690  2
|1229>    2      0.172000       0.008301  2
|1230>   p 2
|1231>    1      0.860000      17.997720  2
|1232>    2      0.172000      -0.032600  2
|1233>   d 2
|1234>    1      1.600000      -9.504310  2
|1235>    2      0.320000      -0.151370  2
|1236>   f 1
|1237>    1      1.000000000    0.000000000 2
|1238> end
|1239> Ti>    4.00000000000   -3.25401964873   -1.48054676798    8.48996751602
|1240> NewECP
|1241> N_core 0
|1242>   lmax f
|1243>   s 2
|1244>    1      0.860000       9.191690  2
|1245>    2      0.172000       0.008301  2
|1246>   p 2
|1247>    1      0.860000      17.997720  2
|1248>    2      0.172000      -0.032600  2
|1249>   d 2
|1250>    1      1.600000      -9.504310  2
|1251>    2      0.320000      -0.151370  2
|1252>   f 1
|1253>    1      1.000000000    0.000000000 2
|1254> end
|1255> Ti>    4.00000000000   -3.25401964873    7.40273383991   -4.52611107891
|1256> NewECP
|1257> N_core 0
|1258>   lmax f
|1259>   s 2
|1260>    1      0.860000       9.191690  2
|1261>    2      0.172000       0.008301  2
|1262>   p 2
|1263>    1      0.860000      17.997720  2
|1264>    2      0.172000      -0.032600  2
|1265>   d 2
|1266>    1      1.600000      -9.504310  2
|1267>    2      0.320000      -0.151370  2
|1268>   f 1
|1269>    1      1.000000000    0.000000000 2
|1270> end
|1271> Ti>    4.00000000000    3.25401964873    7.40273383991   -4.52611107891
|1272> NewECP
|1273> N_core 0
|1274>   lmax f
|1275>   s 2
|1276>    1      0.860000       9.191690  2
|1277>    2      0.172000       0.008301  2
|1278>   p 2
|1279>    1      0.860000      17.997720  2
|1280>    2      0.172000      -0.032600  2
|1281>   d 2
|1282>    1      1.600000      -9.504310  2
|1283>    2      0.320000      -0.151370  2
|1284>   f 1
|1285>    1      1.000000000    0.000000000 2
|1286> end
|1287> Ti>    4.00000000000    3.25401964873   -7.40273383991   -4.52611107891
|1288> NewECP
|1289> N_core 0
|1290>   lmax f
|1291>   s 2
|1292>    1      0.860000       9.191690  2
|1293>    2      0.172000       0.008301  2
|1294>   p 2
|1295>    1      0.860000      17.997720  2
|1296>    2      0.172000      -0.032600  2
|1297>   d 2
|1298>    1      1.600000      -9.504310  2
|1299>    2      0.320000      -0.151370  2
|1300>   f 1
|1301>    1      1.000000000    0.000000000 2
|1302> end
|1303> Ti>    4.00000000000   -3.25401964873   -7.40273383991   -4.52611107891
|1304> NewECP
|1305> N_core 0
|1306>   lmax f
|1307>   s 2
|1308>    1      0.860000       9.191690  2
|1309>    2      0.172000       0.008301  2
|1310>   p 2
|1311>    1      0.860000      17.997720  2
|1312>    2      0.172000      -0.032600  2
|1313>   d 2
|1314>    1      1.600000      -9.504310  2
|1315>    2      0.320000      -0.151370  2
|1316>   f 1
|1317>    1      1.000000000    0.000000000 2
|1318> end
|1319> Ti>    4.00000000000   -6.50803929747    4.44164030394    5.23594786729
|1320> NewECP
|1321> N_core 0
|1322>   lmax f
|1323>   s 2
|1324>    1      0.860000       9.191690  2
|1325>    2      0.172000       0.008301  2
|1326>   p 2
|1327>    1      0.860000      17.997720  2
|1328>    2      0.172000      -0.032600  2
|1329>   d 2
|1330>    1      1.600000      -9.504310  2
|1331>    2      0.320000      -0.151370  2
|1332>   f 1
|1333>    1      1.000000000    0.000000000 2
|1334> end
|1335> Ti>    4.00000000000    6.50803929747    4.44164030394    5.23594786729
|1336> NewECP
|1337> N_core 0
|1338>   lmax f
|1339>   s 2
|1340>    1      0.860000       9.191690  2
|1341>    2      0.172000       0.008301  2
|1342>   p 2
|1343>    1      0.860000      17.997720  2
|1344>    2      0.172000      -0.032600  2
|1345>   d 2
|1346>    1      1.600000      -9.504310  2
|1347>    2      0.320000      -0.151370  2
|1348>   f 1
|1349>    1      1.000000000    0.000000000 2
|1350> end
|1351> Ti>    4.00000000000    6.50803929747   -4.44164030394    5.23594786729
|1352> NewECP
|1353> N_core 0
|1354>   lmax f
|1355>   s 2
|1356>    1      0.860000       9.191690  2
|1357>    2      0.172000       0.008301  2
|1358>   p 2
|1359>    1      0.860000      17.997720  2
|1360>    2      0.172000      -0.032600  2
|1361>   d 2
|1362>    1      1.600000      -9.504310  2
|1363>    2      0.320000      -0.151370  2
|1364>   f 1
|1365>    1      1.000000000    0.000000000 2
|1366> end
|1367> Ti>    4.00000000000   -6.50803929747   -4.44164030394    5.23594786729
|1368> NewECP
|1369> N_core 0
|1370>   lmax f
|1371>   s 2
|1372>    1      0.860000       9.191690  2
|1373>    2      0.172000       0.008301  2
|1374>   p 2
|1375>    1      0.860000      17.997720  2
|1376>    2      0.172000      -0.032600  2
|1377>   d 2
|1378>    1      1.600000      -9.504310  2
|1379>    2      0.320000      -0.151370  2
|1380>   f 1
|1381>    1      1.000000000    0.000000000 2
|1382> end
|1383> Ti>    4.00000000000   -3.25401964873    8.88328060789   -1.27209143018
|1384> NewECP
|1385> N_core 0
|1386>   lmax f
|1387>   s 2
|1388>    1      0.860000       9.191690  2
|1389>    2      0.172000       0.008301  2
|1390>   p 2
|1391>    1      0.860000      17.997720  2
|1392>    2      0.172000      -0.032600  2
|1393>   d 2
|1394>    1      1.600000      -9.504310  2
|1395>    2      0.320000      -0.151370  2
|1396>   f 1
|1397>    1      1.000000000    0.000000000 2
|1398> end
|1399> Ti>    4.00000000000    3.25401964873    8.88328060789   -1.27209143018
|1400> NewECP
|1401> N_core 0
|1402>   lmax f
|1403>   s 2
|1404>    1      0.860000       9.191690  2
|1405>    2      0.172000       0.008301  2
|1406>   p 2
|1407>    1      0.860000      17.997720  2
|1408>    2      0.172000      -0.032600  2
|1409>   d 2
|1410>    1      1.600000      -9.504310  2
|1411>    2      0.320000      -0.151370  2
|1412>   f 1
|1413>    1      1.000000000    0.000000000 2
|1414> end
|1415> Ti>    4.00000000000    3.25401964873   -8.88328060789   -1.27209143018
|1416> NewECP
|1417> N_core 0
|1418>   lmax f
|1419>   s 2
|1420>    1      0.860000       9.191690  2
|1421>    2      0.172000       0.008301  2
|1422>   p 2
|1423>    1      0.860000      17.997720  2
|1424>    2      0.172000      -0.032600  2
|1425>   d 2
|1426>    1      1.600000      -9.504310  2
|1427>    2      0.320000      -0.151370  2
|1428>   f 1
|1429>    1      1.000000000    0.000000000 2
|1430> end
|1431> Ti>    4.00000000000   -3.25401964873   -8.88328060789   -1.27209143018
|1432> NewECP
|1433> N_core 0
|1434>   lmax f
|1435>   s 2
|1436>    1      0.860000       9.191690  2
|1437>    2      0.172000       0.008301  2
|1438>   p 2
|1439>    1      0.860000      17.997720  2
|1440>    2      0.172000      -0.032600  2
|1441>   d 2
|1442>    1      1.600000      -9.504310  2
|1443>    2      0.320000      -0.151370  2
|1444>   f 1
|1445>    1      1.000000000    0.000000000 2
|1446> end
|1447> Ti>    4.00000000000   -9.76205894620    0.00000000000   -1.27209143018
|1448> NewECP
|1449> N_core 0
|1450>   lmax f
|1451>   s 2
|1452>    1      0.860000       9.191690  2
|1453>    2      0.172000       0.008301  2
|1454>   p 2
|1455>    1      0.860000      17.997720  2
|1456>    2      0.172000      -0.032600  2
|1457>   d 2
|1458>    1      1.600000      -9.504310  2
|1459>    2      0.320000      -0.151370  2
|1460>   f 1
|1461>    1      1.000000000    0.000000000 2
|1462> end
|1463> Ti>    4.00000000000    9.76205894620    0.00000000000   -1.27209143018
|1464> NewECP
|1465> N_core 0
|1466>   lmax f
|1467>   s 2
|1468>    1      0.860000       9.191690  2
|1469>    2      0.172000       0.008301  2
|1470>   p 2
|1471>    1      0.860000      17.997720  2
|1472>    2      0.172000      -0.032600  2
|1473>   d 2
|1474>    1      1.600000      -9.504310  2
|1475>    2      0.320000      -0.151370  2
|1476>   f 1
|1477>    1      1.000000000    0.000000000 2
|1478> end
|1479> Ti>    4.00000000000   -6.50803929747    5.92218707193   -4.52611107891
|1480> NewECP
|1481> N_core 0
|1482>   lmax f
|1483>   s 2
|1484>    1      0.860000       9.191690  2
|1485>    2      0.172000       0.008301  2
|1486>   p 2
|1487>    1      0.860000      17.997720  2
|1488>    2      0.172000      -0.032600  2
|1489>   d 2
|1490>    1      1.600000      -9.504310  2
|1491>    2      0.320000      -0.151370  2
|1492>   f 1
|1493>    1      1.000000000    0.000000000 2
|1494> end
|1495> Ti>    4.00000000000    6.50803929747    5.92218707193   -4.52611107891
|1496> NewECP
|1497> N_core 0
|1498>   lmax f
|1499>   s 2
|1500>    1      0.860000       9.191690  2
|1501>    2      0.172000       0.008301  2
|1502>   p 2
|1503>    1      0.860000      17.997720  2
|1504>    2      0.172000      -0.032600  2
|1505>   d 2
|1506>    1      1.600000      -9.504310  2
|1507>    2      0.320000      -0.151370  2
|1508>   f 1
|1509>    1      1.000000000    0.000000000 2
|1510> end
|1511> Ti>    4.00000000000    6.50803929747   -5.92218707193   -4.52611107891
|1512> NewECP
|1513> N_core 0
|1514>   lmax f
|1515>   s 2
|1516>    1      0.860000       9.191690  2
|1517>    2      0.172000       0.008301  2
|1518>   p 2
|1519>    1      0.860000      17.997720  2
|1520>    2      0.172000      -0.032600  2
|1521>   d 2
|1522>    1      1.600000      -9.504310  2
|1523>    2      0.320000      -0.151370  2
|1524>   f 1
|1525>    1      1.000000000    0.000000000 2
|1526> end
|1527> Ti>    4.00000000000   -6.50803929747   -5.92218707193   -4.52611107891
|1528> NewECP
|1529> N_core 0
|1530>   lmax f
|1531>   s 2
|1532>    1      0.860000       9.191690  2
|1533>    2      0.172000       0.008301  2
|1534>   p 2
|1535>    1      0.860000      17.997720  2
|1536>    2      0.172000      -0.032600  2
|1537>   d 2
|1538>    1      1.600000      -9.504310  2
|1539>    2      0.320000      -0.151370  2
|1540>   f 1
|1541>    1      1.000000000    0.000000000 2
|1542> end
|1543> Ti>    4.00000000000   -6.50803929747    7.40273383991   -1.27209143018
|1544> NewECP
|1545> N_core 0
|1546>   lmax f
|1547>   s 2
|1548>    1      0.860000       9.191690  2
|1549>    2      0.172000       0.008301  2
|1550>   p 2
|1551>    1      0.860000      17.997720  2
|1552>    2      0.172000      -0.032600  2
|1553>   d 2
|1554>    1      1.600000      -9.504310  2
|1555>    2      0.320000      -0.151370  2
|1556>   f 1
|1557>    1      1.000000000    0.000000000 2
|1558> end
|1559> Ti>    4.00000000000    6.50803929747    7.40273383991   -1.27209143018
|1560> NewECP
|1561> N_core 0
|1562>   lmax f
|1563>   s 2
|1564>    1      0.860000       9.191690  2
|1565>    2      0.172000       0.008301  2
|1566>   p 2
|1567>    1      0.860000      17.997720  2
|1568>    2      0.172000      -0.032600  2
|1569>   d 2
|1570>    1      1.600000      -9.504310  2
|1571>    2      0.320000      -0.151370  2
|1572>   f 1
|1573>    1      1.000000000    0.000000000 2
|1574> end
|1575> Ti>    4.00000000000    6.50803929747   -7.40273383991   -1.27209143018
|1576> NewECP
|1577> N_core 0
|1578>   lmax f
|1579>   s 2
|1580>    1      0.860000       9.191690  2
|1581>    2      0.172000       0.008301  2
|1582>   p 2
|1583>    1      0.860000      17.997720  2
|1584>    2      0.172000      -0.032600  2
|1585>   d 2
|1586>    1      1.600000      -9.504310  2
|1587>    2      0.320000      -0.151370  2
|1588>   f 1
|1589>    1      1.000000000    0.000000000 2
|1590> end
|1591> Ti>    4.00000000000   -6.50803929747   -7.40273383991   -1.27209143018
|1592> NewECP
|1593> N_core 0
|1594>   lmax f
|1595>   s 2
|1596>    1      0.860000       9.191690  2
|1597>    2      0.172000       0.008301  2
|1598>   p 2
|1599>    1      0.860000      17.997720  2
|1600>    2      0.172000      -0.032600  2
|1601>   d 2
|1602>    1      1.600000      -9.504310  2
|1603>    2      0.320000      -0.151370  2
|1604>   f 1
|1605>    1      1.000000000    0.000000000 2
|1606> end
|1607> Ti>    4.00000000000    0.00000000000    8.88328060789   -4.52611107891
|1608> NewECP
|1609> N_core 0
|1610>   lmax f
|1611>   s 2
|1612>    1      0.860000       9.191690  2
|1613>    2      0.172000       0.008301  2
|1614>   p 2
|1615>    1      0.860000      17.997720  2
|1616>    2      0.172000      -0.032600  2
|1617>   d 2
|1618>    1      1.600000      -9.504310  2
|1619>    2      0.320000      -0.151370  2
|1620>   f 1
|1621>    1      1.000000000    0.000000000 2
|1622> end
|1623> Ti>    4.00000000000    0.00000000000   -8.88328060789   -4.52611107891
|1624> NewECP
|1625> N_core 0
|1626>   lmax f
|1627>   s 2
|1628>    1      0.860000       9.191690  2
|1629>    2      0.172000       0.008301  2
|1630>   p 2
|1631>    1      0.860000      17.997720  2
|1632>    2      0.172000      -0.032600  2
|1633>   d 2
|1634>    1      1.600000      -9.504310  2
|1635>    2      0.320000      -0.151370  2
|1636>   f 1
|1637>    1      1.000000000    0.000000000 2
|1638> end
|1639> Ti>    4.00000000000   -9.76205894620    1.48054676798    1.98192821856
|1640> NewECP
|1641> N_core 0
|1642>   lmax f
|1643>   s 2
|1644>    1      0.860000       9.191690  2
|1645>    2      0.172000       0.008301  2
|1646>   p 2
|1647>    1      0.860000      17.997720  2
|1648>    2      0.172000      -0.032600  2
|1649>   d 2
|1650>    1      1.600000      -9.504310  2
|1651>    2      0.320000      -0.151370  2
|1652>   f 1
|1653>    1      1.000000000    0.000000000 2
|1654> end
|1655> Ti>    4.00000000000    9.76205894620    1.48054676798    1.98192821856
|1656> NewECP
|1657> N_core 0
|1658>   lmax f
|1659>   s 2
|1660>    1      0.860000       9.191690  2
|1661>    2      0.172000       0.008301  2
|1662>   p 2
|1663>    1      0.860000      17.997720  2
|1664>    2      0.172000      -0.032600  2
|1665>   d 2
|1666>    1      1.600000      -9.504310  2
|1667>    2      0.320000      -0.151370  2
|1668>   f 1
|1669>    1      1.000000000    0.000000000 2
|1670> end
|1671> Ti>    4.00000000000    9.76205894620   -1.48054676798    1.98192821856
|1672> NewECP
|1673> N_core 0
|1674>   lmax f
|1675>   s 2
|1676>    1      0.860000       9.191690  2
|1677>    2      0.172000       0.008301  2
|1678>   p 2
|1679>    1      0.860000      17.997720  2
|1680>    2      0.172000      -0.032600  2
|1681>   d 2
|1682>    1      1.600000      -9.504310  2
|1683>    2      0.320000      -0.151370  2
|1684>   f 1
|1685>    1      1.000000000    0.000000000 2
|1686> end
|1687> Ti>    4.00000000000   -9.76205894620   -1.48054676798    1.98192821856
|1688> NewECP
|1689> N_core 0
|1690>   lmax f
|1691>   s 2
|1692>    1      0.860000       9.191690  2
|1693>    2      0.172000       0.008301  2
|1694>   p 2
|1695>    1      0.860000      17.997720  2
|1696>    2      0.172000      -0.032600  2
|1697>   d 2
|1698>    1      1.600000      -9.504310  2
|1699>    2      0.320000      -0.151370  2
|1700>   f 1
|1701>    1      1.000000000    0.000000000 2
|1702> end
|1703> Ti>    4.00000000000   -3.25401964873    4.44164030394    8.48996751602
|1704> NewECP
|1705> N_core 0
|1706>   lmax f
|1707>   s 2
|1708>    1      0.860000       9.191690  2
|1709>    2      0.172000       0.008301  2
|1710>   p 2
|1711>    1      0.860000      17.997720  2
|1712>    2      0.172000      -0.032600  2
|1713>   d 2
|1714>    1      1.600000      -9.504310  2
|1715>    2      0.320000      -0.151370  2
|1716>   f 1
|1717>    1      1.000000000    0.000000000 2
|1718> end
|1719> Ti>    4.00000000000    3.25401964873    4.44164030394    8.48996751602
|1720> NewECP
|1721> N_core 0
|1722>   lmax f
|1723>   s 2
|1724>    1      0.860000       9.191690  2
|1725>    2      0.172000       0.008301  2
|1726>   p 2
|1727>    1      0.860000      17.997720  2
|1728>    2      0.172000      -0.032600  2
|1729>   d 2
|1730>    1      1.600000      -9.504310  2
|1731>    2      0.320000      -0.151370  2
|1732>   f 1
|1733>    1      1.000000000    0.000000000 2
|1734> end
|1735> Ti>    4.00000000000    3.25401964873   -4.44164030394    8.48996751602
|1736> NewECP
|1737> N_core 0
|1738>   lmax f
|1739>   s 2
|1740>    1      0.860000       9.191690  2
|1741>    2      0.172000       0.008301  2
|1742>   p 2
|1743>    1      0.860000      17.997720  2
|1744>    2      0.172000      -0.032600  2
|1745>   d 2
|1746>    1      1.600000      -9.504310  2
|1747>    2      0.320000      -0.151370  2
|1748>   f 1
|1749>    1      1.000000000    0.000000000 2
|1750> end
|1751> Ti>    4.00000000000   -3.25401964873   -4.44164030394    8.48996751602
|1752> NewECP
|1753> N_core 0
|1754>   lmax f
|1755>   s 2
|1756>    1      0.860000       9.191690  2
|1757>    2      0.172000       0.008301  2
|1758>   p 2
|1759>    1      0.860000      17.997720  2
|1760>    2      0.172000      -0.032600  2
|1761>   d 2
|1762>    1      1.600000      -9.504310  2
|1763>    2      0.320000      -0.151370  2
|1764>   f 1
|1765>    1      1.000000000    0.000000000 2
|1766> end
|1767> Ti>    4.00000000000   -6.50803929747    1.48054676798   -7.78013072764
|1768> NewECP
|1769> N_core 0
|1770>   lmax f
|1771>   s 2
|1772>    1      0.860000       9.191690  2
|1773>    2      0.172000       0.008301  2
|1774>   p 2
|1775>    1      0.860000      17.997720  2
|1776>    2      0.172000      -0.032600  2
|1777>   d 2
|1778>    1      1.600000      -9.504310  2
|1779>    2      0.320000      -0.151370  2
|1780>   f 1
|1781>    1      1.000000000    0.000000000 2
|1782> end
|1783> Ti>    4.00000000000    6.50803929747    1.48054676798   -7.78013072764
|1784> NewECP
|1785> N_core 0
|1786>   lmax f
|1787>   s 2
|1788>    1      0.860000       9.191690  2
|1789>    2      0.172000       0.008301  2
|1790>   p 2
|1791>    1      0.860000      17.997720  2
|1792>    2      0.172000      -0.032600  2
|1793>   d 2
|1794>    1      1.600000      -9.504310  2
|1795>    2      0.320000      -0.151370  2
|1796>   f 1
|1797>    1      1.000000000    0.000000000 2
|1798> end
|1799> Ti>    4.00000000000    6.50803929747   -1.48054676798   -7.78013072764
|1800> NewECP
|1801> N_core 0
|1802>   lmax f
|1803>   s 2
|1804>    1      0.860000       9.191690  2
|1805>    2      0.172000       0.008301  2
|1806>   p 2
|1807>    1      0.860000      17.997720  2
|1808>    2      0.172000      -0.032600  2
|1809>   d 2
|1810>    1      1.600000      -9.504310  2
|1811>    2      0.320000      -0.151370  2
|1812>   f 1
|1813>    1      1.000000000    0.000000000 2
|1814> end
|1815> Ti>    4.00000000000   -6.50803929747   -1.48054676798   -7.78013072764
|1816> NewECP
|1817> N_core 0
|1818>   lmax f
|1819>   s 2
|1820>    1      0.860000       9.191690  2
|1821>    2      0.172000       0.008301  2
|1822>   p 2
|1823>    1      0.860000      17.997720  2
|1824>    2      0.172000      -0.032600  2
|1825>   d 2
|1826>    1      1.600000      -9.504310  2
|1827>    2      0.320000      -0.151370  2
|1828>   f 1
|1829>    1      1.000000000    0.000000000 2
|1830> end
|1831> Ti>    4.00000000000   -9.76205894620    2.96109353596   -1.27209143018
|1832> NewECP
|1833> N_core 0
|1834>   lmax f
|1835>   s 2
|1836>    1      0.860000       9.191690  2
|1837>    2      0.172000       0.008301  2
|1838>   p 2
|1839>    1      0.860000      17.997720  2
|1840>    2      0.172000      -0.032600  2
|1841>   d 2
|1842>    1      1.600000      -9.504310  2
|1843>    2      0.320000      -0.151370  2
|1844>   f 1
|1845>    1      1.000000000    0.000000000 2
|1846> end
|1847> Ti>    4.00000000000    9.76205894620    2.96109353596   -1.27209143018
|1848> NewECP
|1849> N_core 0
|1850>   lmax f
|1851>   s 2
|1852>    1      0.860000       9.191690  2
|1853>    2      0.172000       0.008301  2
|1854>   p 2
|1855>    1      0.860000      17.997720  2
|1856>    2      0.172000      -0.032600  2
|1857>   d 2
|1858>    1      1.600000      -9.504310  2
|1859>    2      0.320000      -0.151370  2
|1860>   f 1
|1861>    1      1.000000000    0.000000000 2
|1862> end
|1863> Ti>    4.00000000000    9.76205894620   -2.96109353596   -1.27209143018
|1864> NewECP
|1865> N_core 0
|1866>   lmax f
|1867>   s 2
|1868>    1      0.860000       9.191690  2
|1869>    2      0.172000       0.008301  2
|1870>   p 2
|1871>    1      0.860000      17.997720  2
|1872>    2      0.172000      -0.032600  2
|1873>   d 2
|1874>    1      1.600000      -9.504310  2
|1875>    2      0.320000      -0.151370  2
|1876>   f 1
|1877>    1      1.000000000    0.000000000 2
|1878> end
|1879> Ti>    4.00000000000   -9.76205894620   -2.96109353596   -1.27209143018
|1880> NewECP
|1881> N_core 0
|1882>   lmax f
|1883>   s 2
|1884>    1      0.860000       9.191690  2
|1885>    2      0.172000       0.008301  2
|1886>   p 2
|1887>    1      0.860000      17.997720  2
|1888>    2      0.172000      -0.032600  2
|1889>   d 2
|1890>    1      1.600000      -9.504310  2
|1891>    2      0.320000      -0.151370  2
|1892>   f 1
|1893>    1      1.000000000    0.000000000 2
|1894> end
|1895> Ti>    4.00000000000   -3.25401964873    5.92218707193   -7.78013072764
|1896> NewECP
|1897> N_core 0
|1898>   lmax f
|1899>   s 2
|1900>    1      0.860000       9.191690  2
|1901>    2      0.172000       0.008301  2
|1902>   p 2
|1903>    1      0.860000      17.997720  2
|1904>    2      0.172000      -0.032600  2
|1905>   d 2
|1906>    1      1.600000      -9.504310  2
|1907>    2      0.320000      -0.151370  2
|1908>   f 1
|1909>    1      1.000000000    0.000000000 2
|1910> end
|1911> Ti>    4.00000000000    3.25401964873    5.92218707193   -7.78013072764
|1912> NewECP
|1913> N_core 0
|1914>   lmax f
|1915>   s 2
|1916>    1      0.860000       9.191690  2
|1917>    2      0.172000       0.008301  2
|1918>   p 2
|1919>    1      0.860000      17.997720  2
|1920>    2      0.172000      -0.032600  2
|1921>   d 2
|1922>    1      1.600000      -9.504310  2
|1923>    2      0.320000      -0.151370  2
|1924>   f 1
|1925>    1      1.000000000    0.000000000 2
|1926> end
|1927> Ti>    4.00000000000    3.25401964873   -5.92218707193   -7.78013072764
|1928> NewECP
|1929> N_core 0
|1930>   lmax f
|1931>   s 2
|1932>    1      0.860000       9.191690  2
|1933>    2      0.172000       0.008301  2
|1934>   p 2
|1935>    1      0.860000      17.997720  2
|1936>    2      0.172000      -0.032600  2
|1937>   d 2
|1938>    1      1.600000      -9.504310  2
|1939>    2      0.320000      -0.151370  2
|1940>   f 1
|1941>    1      1.000000000    0.000000000 2
|1942> end
|1943> Ti>    4.00000000000   -3.25401964873   -5.92218707193   -7.78013072764
|1944> NewECP
|1945> N_core 0
|1946>   lmax f
|1947>   s 2
|1948>    1      0.860000       9.191690  2
|1949>    2      0.172000       0.008301  2
|1950>   p 2
|1951>    1      0.860000      17.997720  2
|1952>    2      0.172000      -0.032600  2
|1953>   d 2
|1954>    1      1.600000      -9.504310  2
|1955>    2      0.320000      -0.151370  2
|1956>   f 1
|1957>    1      1.000000000    0.000000000 2
|1958> end
|1959> Ti>    4.00000000000    0.00000000000    5.92218707193    8.48996751602
|1960> NewECP
|1961> N_core 0
|1962>   lmax f
|1963>   s 2
|1964>    1      0.860000       9.191690  2
|1965>    2      0.172000       0.008301  2
|1966>   p 2
|1967>    1      0.860000      17.997720  2
|1968>    2      0.172000      -0.032600  2
|1969>   d 2
|1970>    1      1.600000      -9.504310  2
|1971>    2      0.320000      -0.151370  2
|1972>   f 1
|1973>    1      1.000000000    0.000000000 2
|1974> end
|1975> Ti>    4.00000000000    0.00000000000   -5.92218707193    8.48996751602
|1976> NewECP
|1977> N_core 0
|1978>   lmax f
|1979>   s 2
|1980>    1      0.860000       9.191690  2
|1981>    2      0.172000       0.008301  2
|1982>   p 2
|1983>    1      0.860000      17.997720  2
|1984>    2      0.172000      -0.032600  2
|1985>   d 2
|1986>    1      1.600000      -9.504310  2
|1987>    2      0.320000      -0.151370  2
|1988>   f 1
|1989>    1      1.000000000    0.000000000 2
|1990> end
|1991> Ti>    4.00000000000    0.00000000000   10.36382737587   -1.27209143018
|1992> NewECP
|1993> N_core 0
|1994>   lmax f
|1995>   s 2
|1996>    1      0.860000       9.191690  2
|1997>    2      0.172000       0.008301  2
|1998>   p 2
|1999>    1      0.860000      17.997720  2
|2000>    2      0.172000      -0.032600  2
|2001>   d 2
|2002>    1      1.600000      -9.504310  2
|2003>    2      0.320000      -0.151370  2
|2004>   f 1
|2005>    1      1.000000000    0.000000000 2
|2006> end
|2007> Ti>    4.00000000000    0.00000000000  -10.36382737587   -1.27209143018
|2008> NewECP
|2009> N_core 0
|2010>   lmax f
|2011>   s 2
|2012>    1      0.860000       9.191690  2
|2013>    2      0.172000       0.008301  2
|2014>   p 2
|2015>    1      0.860000      17.997720  2
|2016>    2      0.172000      -0.032600  2
|2017>   d 2
|2018>    1      1.600000      -9.504310  2
|2019>    2      0.320000      -0.151370  2
|2020>   f 1
|2021>    1      1.000000000    0.000000000 2
|2022> end
|2023> Ti>    4.00000000000   -6.50803929747    0.00000000000    8.48996751602
|2024> NewECP
|2025> N_core 0
|2026>   lmax f
|2027>   s 2
|2028>    1      0.860000       9.191690  2
|2029>    2      0.172000       0.008301  2
|2030>   p 2
|2031>    1      0.860000      17.997720  2
|2032>    2      0.172000      -0.032600  2
|2033>   d 2
|2034>    1      1.600000      -9.504310  2
|2035>    2      0.320000      -0.151370  2
|2036>   f 1
|2037>    1      1.000000000    0.000000000 2
|2038> end
|2039> Ti>    4.00000000000    6.50803929747    0.00000000000    8.48996751602
|2040> NewECP
|2041> N_core 0
|2042>   lmax f
|2043>   s 2
|2044>    1      0.860000       9.191690  2
|2045>    2      0.172000       0.008301  2
|2046>   p 2
|2047>    1      0.860000      17.997720  2
|2048>    2      0.172000      -0.032600  2
|2049>   d 2
|2050>    1      1.600000      -9.504310  2
|2051>    2      0.320000      -0.151370  2
|2052>   f 1
|2053>    1      1.000000000    0.000000000 2
|2054> end
|2055> Ti>    4.00000000000    0.00000000000    7.40273383991   -7.78013072764
|2056> NewECP
|2057> N_core 0
|2058>   lmax f
|2059>   s 2
|2060>    1      0.860000       9.191690  2
|2061>    2      0.172000       0.008301  2
|2062>   p 2
|2063>    1      0.860000      17.997720  2
|2064>    2      0.172000      -0.032600  2
|2065>   d 2
|2066>    1      1.600000      -9.504310  2
|2067>    2      0.320000      -0.151370  2
|2068>   f 1
|2069>    1      1.000000000    0.000000000 2
|2070> end
|2071> Ti>    4.00000000000    0.00000000000   -7.40273383991   -7.78013072764
|2072> NewECP
|2073> N_core 0
|2074>   lmax f
|2075>   s 2
|2076>    1      0.860000       9.191690  2
|2077>    2      0.172000       0.008301  2
|2078>   p 2
|2079>    1      0.860000      17.997720  2
|2080>    2      0.172000      -0.032600  2
|2081>   d 2
|2082>    1      1.600000      -9.504310  2
|2083>    2      0.320000      -0.151370  2
|2084>   f 1
|2085>    1      1.000000000    0.000000000 2
|2086> end
|2087> Ti>    4.00000000000   -3.25401964873    8.88328060789    5.23594786729
|2088> NewECP
|2089> N_core 0
|2090>   lmax f
|2091>   s 2
|2092>    1      0.860000       9.191690  2
|2093>    2      0.172000       0.008301  2
|2094>   p 2
|2095>    1      0.860000      17.997720  2
|2096>    2      0.172000      -0.032600  2
|2097>   d 2
|2098>    1      1.600000      -9.504310  2
|2099>    2      0.320000      -0.151370  2
|2100>   f 1
|2101>    1      1.000000000    0.000000000 2
|2102> end
|2103> Ti>    4.00000000000    3.25401964873    8.88328060789    5.23594786729
|2104> NewECP
|2105> N_core 0
|2106>   lmax f
|2107>   s 2
|2108>    1      0.860000       9.191690  2
|2109>    2      0.172000       0.008301  2
|2110>   p 2
|2111>    1      0.860000      17.997720  2
|2112>    2      0.172000      -0.032600  2
|2113>   d 2
|2114>    1      1.600000      -9.504310  2
|2115>    2      0.320000      -0.151370  2
|2116>   f 1
|2117>    1      1.000000000    0.000000000 2
|2118> end
|2119> Ti>    4.00000000000    3.25401964873   -8.88328060789    5.23594786729
|2120> NewECP
|2121> N_core 0
|2122>   lmax f
|2123>   s 2
|2124>    1      0.860000       9.191690  2
[...]
225 Q      0.0000     4.0000     4.0000     0.0000     0.0000     0.0000
226 Q      0.0000     4.0000     4.0000     0.0000     0.0000     0.0000
227 Q      0.0000     4.0000     4.0000     0.0000     0.0000     0.0000
228 Q      0.0000     4.0000     4.0000     0.0000     0.0000     0.0000
229 Q      0.0000     4.0000     4.0000     0.0000     0.0000     0.0000
230 Q      0.0000     4.0000     4.0000     0.0000     0.0000     0.0000
231 Q      0.0000     4.0000     4.0000     0.0000     0.0000     0.0000
232 Q      0.0000     4.0000     4.0000     0.0000     0.0000     0.0000
233 Q      0.0000     4.0000     4.0000     0.0000     0.0000     0.0000
234 Q      0.0000     4.0000     4.0000     0.0000     0.0000     0.0000
235 Q      0.0000     4.0000     4.0000     0.0000     0.0000     0.0000
236 Q      0.0000     4.0000     4.0000     0.0000     0.0000     0.0000
237 Q      0.0000     4.0000     4.0000     0.0000     0.0000     0.0000
238 Q      0.0000     4.0000     4.0000     0.0000     0.0000     0.0000
239 Q      0.0000     4.0000     4.0000     0.0000     0.0000     0.0000
240 Q      0.0000     4.0000     4.0000     0.0000     0.0000     0.0000
241 Q      0.0000     4.0000     4.0000     0.0000     0.0000     0.0000
242 Q      0.0000     4.0000     4.0000     0.0000     0.0000     0.0000
243 Q      0.0000     4.0000     4.0000     0.0000     0.0000     0.0000
244 Q      0.0000     4.0000     4.0000     0.0000     0.0000     0.0000
245 Q      0.0000     4.0000     4.0000     0.0000     0.0000     0.0000
246 Q      0.0000     4.0000     4.0000     0.0000     0.0000     0.0000
247 Q      0.0000     4.0000     4.0000     0.0000     0.0000     0.0000
248 Q      0.0000     4.0000     4.0000     0.0000     0.0000     0.0000
249 Q      0.0000     4.0000     4.0000     0.0000     0.0000     0.0000
250 Q      0.0000     4.0000     4.0000     0.0000     0.0000     0.0000
251 Q      0.0000     4.0000     4.0000     0.0000     0.0000     0.0000
252 Q      0.0000     4.0000     4.0000     0.0000     0.0000     0.0000
253 Q      0.0000     4.0000     4.0000     0.0000     0.0000     0.0000
254 Q      0.0000     4.0000     4.0000     0.0000     0.0000     0.0000
255 Q      0.0000     4.0000     4.0000     0.0000     0.0000     0.0000
256 Q      0.0000     4.0000     4.0000     0.0000     0.0000     0.0000
257 Q      0.0000     4.0000     4.0000     0.0000     0.0000     0.0000
258 Q      0.0000     4.0000     4.0000     0.0000     0.0000     0.0000
259 Q      0.0000     4.0000     4.0000     0.0000     0.0000     0.0000
260 Q      0.0000     4.0000     4.0000     0.0000     0.0000     0.0000
261 Q      0.0000     4.0000     4.0000     0.0000     0.0000     0.0000
262 Q      0.0000     4.0000     4.0000     0.0000     0.0000     0.0000
263 Q      0.0000     4.0000     4.0000     0.0000     0.0000     0.0000
264 Q      0.0000     4.0000     4.0000     0.0000     0.0000     0.0000
265 Q      0.0000     4.0000     4.0000     0.0000     0.0000     0.0000
266 Q      0.0000     4.0000     4.0000     0.0000     0.0000     0.0000
267 Q      0.0000     4.0000     4.0000     0.0000     0.0000     0.0000
268 Q      0.0000     4.0000     4.0000     0.0000     0.0000     0.0000
269 Q      0.0000     4.0000     4.0000     0.0000     0.0000     0.0000
270 Q      0.0000     4.0000     4.0000     0.0000     0.0000     0.0000
271 Q      0.0000     4.0000     4.0000     0.0000     0.0000     0.0000
272 Q      0.0000     4.0000     4.0000     0.0000     0.0000     0.0000
273 Q      0.0000     4.0000     4.0000     0.0000     0.0000     0.0000
274 Q      0.0000     4.0000     4.0000     0.0000     0.0000     0.0000
275 Q      0.0000     4.0000     4.0000     0.0000     0.0000     0.0000
276 Q      0.0000     4.0000     4.0000     0.0000     0.0000     0.0000
277 Q      0.0000     4.0000     4.0000     0.0000     0.0000     0.0000
278 Q      0.0000     4.0000     4.0000     0.0000     0.0000     0.0000
279 Q      0.0000     4.0000     4.0000     0.0000     0.0000     0.0000
280 Q      0.0000     4.0000     4.0000     0.0000     0.0000     0.0000
281 Q      0.0000     4.0000     4.0000     0.0000     0.0000     0.0000
282 Q      0.0000     4.0000     4.0000     0.0000     0.0000     0.0000
283 Q      0.0000     4.0000     4.0000     0.0000     0.0000     0.0000
284 Q      0.0000     4.0000     4.0000     0.0000     0.0000     0.0000
285 Q      0.0000     4.0000     4.0000     0.0000     0.0000     0.0000
286 Q      0.0000     4.0000     4.0000     0.0000     0.0000     0.0000
287 Q      0.0000     4.0000     4.0000     0.0000     0.0000     0.0000
288 Q      0.0000     4.0000     4.0000     0.0000     0.0000     0.0000
289 Q      0.0000     4.0000     4.0000     0.0000     0.0000     0.0000
290 Q      0.0000     4.0000     4.0000     0.0000     0.0000     0.0000
291 Q      0.0000     4.0000     4.0000     0.0000     0.0000     0.0000
292 Q      0.0000     4.0000     4.0000     0.0000     0.0000     0.0000
293 Q      0.0000     4.0000     4.0000     0.0000     0.0000     0.0000
294 Q      0.0000     4.0000     4.0000     0.0000     0.0000     0.0000
295 Q      0.0000     4.0000     4.0000     0.0000     0.0000     0.0000
296 Q      0.0000     4.0000     4.0000     0.0000     0.0000     0.0000
297 Q      0.0000     4.0000     4.0000     0.0000     0.0000     0.0000
298 Q      0.0000     4.0000     4.0000     0.0000     0.0000     0.0000
299 Q      0.0000     4.0000     4.0000     0.0000     0.0000     0.0000
300 Q      0.0000     4.0000     4.0000     0.0000     0.0000     0.0000
301 Q      0.0000     4.0000     4.0000     0.0000     0.0000     0.0000
302 Q      0.0000     4.0000     4.0000     0.0000     0.0000     0.0000
303 Q      0.0000     4.0000     4.0000     0.0000     0.0000     0.0000
304 Q      0.0000     4.0000     4.0000     0.0000     0.0000     0.0000
305 Q      0.0000     4.0000     4.0000     0.0000     0.0000     0.0000
306 Q      0.0000     4.0000     4.0000     0.0000     0.0000     0.0000
307 Q      0.0000     4.0000     4.0000     0.0000     0.0000     0.0000
308 Q      0.0000     4.0000     4.0000     0.0000     0.0000     0.0000
309 Q      0.0000     4.0000     4.0000     0.0000     0.0000     0.0000
310 Q      0.0000     4.0000     4.0000     0.0000     0.0000     0.0000
311 Q      0.0000     4.0000     4.0000     0.0000     0.0000     0.0000
312 Q      0.0000     4.0000     4.0000     0.0000     0.0000     0.0000
313 Q      0.0000     4.0000     4.0000     0.0000     0.0000     0.0000
314 Q      0.0000     4.0000     4.0000     0.0000     0.0000     0.0000
315 Q      0.0000     4.0000     4.0000     0.0000     0.0000     0.0000
316 Q      0.0000     4.0000     4.0000     0.0000     0.0000     0.0000
317 Q      0.0000     4.0000     4.0000     0.0000     0.0000     0.0000
318 Q      0.0000     4.0000     4.0000     0.0000     0.0000     0.0000
319 Q      0.0000     4.0000     4.0000     0.0000     0.0000     0.0000
320 Q      0.0000     4.0000     4.0000     0.0000     0.0000     0.0000
321 Q      0.0000     4.0000     4.0000     0.0000     0.0000     0.0000
322 Q      0.0000     4.0000     4.0000     0.0000     0.0000     0.0000
323 Q      0.0000     4.0000     4.0000     0.0000     0.0000     0.0000
324 Q      0.0000     4.0000     4.0000     0.0000     0.0000     0.0000
325 Q      0.0000     4.0000     4.0000     0.0000     0.0000     0.0000
326 Q      0.0000     4.0000     4.0000     0.0000     0.0000     0.0000
327 Q      0.0000     4.0000     4.0000     0.0000     0.0000     0.0000
328 Q      0.0000     4.0000     4.0000     0.0000     0.0000     0.0000
329 Q      0.0000     4.0000     4.0000     0.0000     0.0000     0.0000
330 Q      0.0000     4.0000     4.0000     0.0000     0.0000     0.0000
331 Q      0.0000     4.0000     4.0000     0.0000     0.0000     0.0000
332 Q      0.0000     4.0000     4.0000     0.0000     0.0000     0.0000
333 Q      0.0000     4.0000     4.0000     0.0000     0.0000     0.0000
334 Q      0.0000     4.0000     4.0000     0.0000     0.0000     0.0000
335 Q      0.0000     4.0000     4.0000     0.0000     0.0000     0.0000
336 Q      0.0000     4.0000     4.0000     0.0000     0.0000     0.0000
337 Q      0.0000     4.0000     4.0000     0.0000     0.0000     0.0000
338 Q      0.0000     4.0000     4.0000     0.0000     0.0000     0.0000
339 Q      0.0000     4.0000     4.0000     0.0000     0.0000     0.0000
340 Q      0.0000     4.0000     4.0000     0.0000     0.0000     0.0000
341 Q      0.0000     4.0000     4.0000     0.0000     0.0000     0.0000
342 Q      0.0000     4.0000     4.0000     0.0000     0.0000     0.0000
343 Q      0.0000     4.0000     4.0000     0.0000     0.0000     0.0000
344 Q      0.0000     4.0000     4.0000     0.0000     0.0000     0.0000
345 Q      0.0000     4.0000     4.0000     0.0000     0.0000     0.0000
346 Q      0.0000     4.0000     4.0000     0.0000     0.0000     0.0000
347 Q      0.0000     4.0000     4.0000     0.0000     0.0000     0.0000
348 Q      0.0000     4.0000     4.0000     0.0000     0.0000     0.0000
349 Q      0.0000     4.0000     4.0000     0.0000     0.0000     0.0000
350 Q      0.0000     4.0000     4.0000     0.0000     0.0000     0.0000
351 Q      0.0000     4.0000     4.0000     0.0000     0.0000     0.0000
352 Q      0.0000     4.0000     4.0000     0.0000     0.0000     0.0000
353 Q      0.0000     4.0000     4.0000     0.0000     0.0000     0.0000
354 Q      0.0000     4.0000     4.0000     0.0000     0.0000     0.0000
355 Q      0.0000     4.0000     4.0000     0.0000     0.0000     0.0000
356 Q      0.0000     4.0000     4.0000     0.0000     0.0000     0.0000
357 Q      0.0000     4.0000     4.0000     0.0000     0.0000     0.0000
358 Q      0.0000     4.0000     4.0000     0.0000     0.0000     0.0000
359 Q      0.0000     4.0000     4.0000     0.0000     0.0000     0.0000
360 Q      0.0000     4.0000     4.0000     0.0000     0.0000     0.0000
361 Q      0.0000     4.0000     4.0000     0.0000     0.0000     0.0000
362 Q      0.0000     4.0000     4.0000     0.0000     0.0000     0.0000
363 Q      0.0000     4.0000     4.0000     0.0000     0.0000     0.0000
364 Q      0.0000     4.0000     4.0000     0.0000     0.0000     0.0000
365 Q      0.0000     4.0000     4.0000     0.0000     0.0000     0.0000
366 Q      0.0000     4.0000     4.0000     0.0000     0.0000     0.0000
367 Q      0.0000     4.0000     4.0000     0.0000     0.0000     0.0000
368 Q      0.0000     4.0000     4.0000     0.0000     0.0000     0.0000
369 Q      0.0000     4.0000     4.0000     0.0000     0.0000     0.0000
370 Q      0.0000     4.0000     4.0000     0.0000     0.0000     0.0000
371 Q      0.0000     4.0000     4.0000     0.0000     0.0000     0.0000
372 Q      0.0000     4.0000     4.0000     0.0000     0.0000     0.0000
373 Q      0.0000     4.0000     4.0000     0.0000     0.0000     0.0000
374 Q      0.0000     4.0000     4.0000     0.0000     0.0000     0.0000
375 Q      0.0000     4.0000     4.0000     0.0000     0.0000     0.0000
376 Q      0.0000     4.0000     4.0000     0.0000     0.0000     0.0000
377 Q      0.0000     4.0000     4.0000     0.0000     0.0000     0.0000

  Mayer bond orders larger than 0.100000
B(  0-O ,  1-Ti) :   0.7205 B(  0-O ,  2-Ti) :   0.7204 B(  0-O ,  3-Ti) :   0.6121 
B(  1-Ti,  2-Ti) :   0.1252 B(  1-Ti,  4-O ) :   0.6879 B(  1-Ti,  9-O ) :   0.5090 
B(  1-Ti, 10-O ) :   0.5090 B(  1-Ti, 13-O ) :   0.5812 B(  1-Ti, 21-O ) :   0.5576 
B(  2-Ti,  4-O ) :   0.6879 B(  2-Ti, 11-O ) :   0.5090 B(  2-Ti, 12-O ) :   0.5090 
B(  2-Ti, 14-O ) :   0.5812 B(  2-Ti, 22-O ) :   0.5575 B(  3-Ti,  5-O ) :   0.6151 
B(  3-Ti,  6-O ) :   0.6151 B(  3-Ti,  7-O ) :   0.6151 B(  3-Ti,  8-O ) :   0.6151 
B(  3-Ti, 23-O ) :   0.3716 B(  4-O , 32-Ti) :   0.6940 B(  5-O , 19-Ti) :   0.8047 
B(  5-O , 24-Ti) :   0.7019 B(  6-O , 19-Ti) :   0.8047 B(  6-O , 25-Ti) :   0.7019 
B(  7-O , 20-Ti) :   0.8047 B(  7-O , 26-Ti) :   0.7019 B(  8-O , 20-Ti) :   0.8047 
B(  8-O , 27-Ti) :   0.7019 B(  9-O , 17-Ti) :   0.7960 B(  9-O , 33-Ti) :   0.7688 
B( 10-O , 18-Ti) :   0.7960 B( 10-O , 34-Ti) :   0.7688 B( 11-O , 18-Ti) :   0.7960 
B( 11-O , 35-Ti) :   0.7688 B( 12-O , 17-Ti) :   0.7960 B( 12-O , 36-Ti) :   0.7688 
B( 13-O , 19-Ti) :   0.7547 B( 13-O , 41-Ti) :   0.7688 B( 14-O , 20-Ti) :   0.7547 
B( 14-O , 42-Ti) :   0.7688 B( 15-O , 17-Ti) :   0.6493 B( 15-O , 24-Ti) :   0.7560 
B( 15-O , 27-Ti) :   0.7560 B( 16-O , 18-Ti) :   0.6493 B( 16-O , 25-Ti) :   0.7560 
B( 16-O , 26-Ti) :   0.7560 B( 17-Ti, 39-O ) :   0.5517 B( 17-Ti, 43-O ) :   0.5680 
B( 17-Ti, 46-O ) :   0.5680 B( 18-Ti, 40-O ) :   0.5517 B( 18-Ti, 44-O ) :   0.5680 
B( 18-Ti, 45-O ) :   0.5680 B( 19-Ti, 51-O ) :   0.6421 B( 19-Ti, 53-O ) :   0.6503 
B( 19-Ti, 54-O ) :   0.6503 B( 20-Ti, 52-O ) :   0.6421 B( 20-Ti, 55-O ) :   0.6503 
B( 20-Ti, 56-O ) :   0.6503 B( 21-O , 41-Ti) :   0.7889 B( 21-O , 61-Ti) :   0.7323 
B( 22-O , 42-Ti) :   0.7889 B( 22-O , 62-Ti) :   0.7323 B( 23-O , 63-Ti) :   0.8243 
B( 23-O , 64-Ti) :   0.8243 B( 24-Ti, 28-O ) :   0.7246 B( 24-Ti, 37-O ) :   0.7013 
B( 24-Ti, 65-O ) :   0.7647 B( 24-Ti, 81-O ) :   0.6221 B( 25-Ti, 29-O ) :   0.7246 
B( 25-Ti, 38-O ) :   0.7013 B( 25-Ti, 66-O ) :   0.7647 B( 25-Ti, 82-O ) :   0.6221 
B( 26-Ti, 30-O ) :   0.7246 B( 26-Ti, 38-O ) :   0.7013 B( 26-Ti, 67-O ) :   0.7647 
B( 26-Ti, 83-O ) :   0.6221 B( 27-Ti, 31-O ) :   0.7246 B( 27-Ti, 37-O ) :   0.7013 
B( 27-Ti, 68-O ) :   0.7647 B( 27-Ti, 84-O ) :   0.6221 B( 28-O , 33-Ti) :   0.6174 
B( 28-O , 85-Ti) :   0.8135 B( 29-O , 34-Ti) :   0.6174 B( 29-O , 86-Ti) :   0.8135 
B( 30-O , 35-Ti) :   0.6174 B( 30-O , 87-Ti) :   0.8135 B( 31-O , 36-Ti) :   0.6174 
B( 31-O , 88-Ti) :   0.8135 B( 32-Ti, 47-O ) :   0.7195 B( 32-Ti, 48-O ) :   0.7195 
B( 32-Ti, 49-O ) :   0.7195 B( 32-Ti, 50-O ) :   0.7195 B( 32-Ti,107-O ) :   0.7945 
B( 33-Ti, 43-O ) :   0.6097 B( 33-Ti, 57-O ) :   0.8194 B( 33-Ti, 69-O ) :   0.7420 
B( 33-Ti, 97-O ) :   0.8853 B( 34-Ti, 44-O ) :   0.6097 B( 34-Ti, 58-O ) :   0.8194 
B( 34-Ti, 70-O ) :   0.7420 B( 34-Ti, 98-O ) :   0.8853 B( 35-Ti, 45-O ) :   0.6097 
B( 35-Ti, 59-O ) :   0.8194 B( 35-Ti, 71-O ) :   0.7420 B( 35-Ti, 99-O ) :   0.8853 
B( 36-Ti, 46-O ) :   0.6097 B( 36-Ti, 60-O ) :   0.8194 B( 36-Ti, 72-O ) :   0.7420 
B( 36-Ti,100-O ) :   0.8853 B( 37-O , 91-Ti) :   0.7360 B( 38-O , 92-Ti) :   0.7360 
B( 39-O , 73-Ti) :   0.7844 B( 39-O , 76-Ti) :   0.7844 B( 40-O , 74-Ti) :   0.7844 
B( 40-O , 75-Ti) :   0.7844 B( 41-Ti, 57-O ) :   0.7243 B( 41-Ti, 58-O ) :   0.7243 
B( 41-Ti, 89-O ) :   0.7047 B( 41-Ti, 95-O ) :   0.8099 B( 42-Ti, 59-O ) :   0.7243 
B( 42-Ti, 60-O ) :   0.7243 B( 42-Ti, 90-O ) :   0.7047 B( 42-Ti, 96-O ) :   0.8099 
B( 43-O ,114-Ti) :   0.9373 B( 44-O ,115-Ti) :   0.9373 B( 45-O ,116-Ti) :   0.9373 
B( 46-O ,117-Ti) :   0.9373 B( 47-O , 61-Ti) :   0.6866 B( 47-O , 73-Ti) :   0.7305 
B( 48-O , 61-Ti) :   0.6866 B( 48-O , 74-Ti) :   0.7305 B( 49-O , 62-Ti) :   0.6866 
B( 49-O , 75-Ti) :   0.7305 B( 50-O , 62-Ti) :   0.6866 B( 50-O , 76-Ti) :   0.7305 
B( 51-O , 63-Ti) :   0.8975 B( 52-O , 64-Ti) :   0.8975 B( 53-O , 85-Ti) :   0.6257 
B( 53-O , 93-Ti) :   0.8248 B( 54-O , 86-Ti) :   0.6257 B( 54-O , 93-Ti) :   0.8248 
B( 55-O , 87-Ti) :   0.6257 B( 55-O , 94-Ti) :   0.8248 B( 56-O , 88-Ti) :   0.6257 
B( 56-O , 94-Ti) :   0.8248 B( 61-Ti,101-O ) :   0.8073 B( 61-Ti,102-O ) :   0.8073 
B( 62-Ti,103-O ) :   0.8073 B( 62-Ti,104-O ) :   0.8073 B( 63-Ti, 77-O ) :   0.6574 
B( 63-Ti, 78-O ) :   0.6574 B( 64-Ti, 79-O ) :   0.6574 B( 64-Ti, 80-O ) :   0.6574 
B( 65-O , 85-Ti) :   0.7461 B( 66-O , 86-Ti) :   0.7461 B( 67-O , 87-Ti) :   0.7461 
B( 68-O , 88-Ti) :   0.7461 B( 69-O , 73-Ti) :   0.7474 B( 70-O , 74-Ti) :   0.7474 
B( 71-O , 75-Ti) :   0.7474 B( 72-O , 76-Ti) :   0.7474 B( 73-Ti,108-O ) :   0.7700 
B( 74-Ti,109-O ) :   0.7700 B( 75-Ti,109-O ) :   0.7700 B( 76-Ti,108-O ) :   0.7700 
B( 77-O , 91-Ti) :   0.8525 B( 78-O , 92-Ti) :   0.8525 B( 79-O , 92-Ti) :   0.8525 
B( 80-O , 91-Ti) :   0.8525 B( 81-O ,118-Ti) :   0.9341 B( 82-O ,119-Ti) :   0.9341 
B( 83-O ,119-Ti) :   0.9341 B( 84-O ,118-Ti) :   0.9341 B( 85-Ti,110-O ) :   0.8163 
B( 86-Ti,111-O ) :   0.8163 B( 87-Ti,112-O ) :   0.8163 B( 88-Ti,113-O ) :   0.8163 
B( 89-O , 93-Ti) :   0.8049 B( 90-O , 94-Ti) :   0.8049 B(105-O ,114-Ti) :   0.8002 
B(105-O ,117-Ti) :   0.8002 B(105-O ,118-Ti) :   0.5218 B(106-O ,115-Ti) :   0.8002 
B(106-O ,116-Ti) :   0.8002 B(106-O ,119-Ti) :   0.5218 

-------
TIMINGS
-------

Total SCF time: 0 days 0 hours 12 min 50 sec 

Total time                  ....     770.715 sec
Sum of individual times     ....     750.584 sec  ( 97.4%)

Fock matrix formation       ....     628.892 sec  ( 81.6%)
  XC integration            ....     151.918 sec  ( 24.2% of F)
    Basis function eval.    ....      36.614 sec  ( 24.1% of XC)
    Density eval.           ....      69.465 sec  ( 45.7% of XC)
    XC-Functional eval.     ....       2.665 sec  (  1.8% of XC)
    XC-Potential eval.      ....      28.571 sec  ( 18.8% of XC)
Diagonalization             ....      43.056 sec  (  5.6%)
Density matrix formation    ....       7.314 sec  (  0.9%)
Population analysis         ....       2.026 sec  (  0.3%)
Initial guess               ....       4.353 sec  (  0.6%)
Orbital Transformation      ....       0.000 sec  (  0.0%)
Orbital Orthonormalization  ....       0.000 sec  (  0.0%)
DIIS solution               ....      50.725 sec  (  6.6%)
Grid generation             ....      14.217 sec  (  1.8%)

Maximum memory used throughout the entire SCF-calculation: 800.8 MB

-------------------------   --------------------
FINAL SINGLE POINT ENERGY    -65464.439016669268
-------------------------   --------------------


                            ***************************************
                            *     ORCA property calculations      *
                            ***************************************

                                    ---------------------
                                    Active property flags
                                    ---------------------
   (+) Dipole Moment


------------------------------------------------------------------------------
                       ORCA ELECTRIC PROPERTIES CALCULATION
------------------------------------------------------------------------------

Dipole Moment Calculation                       ... on
Quadrupole Moment Calculation                   ... off
Polarizability Calculation                      ... off
GBWName                                         ... orca.gbw
Electron density                                ... orca.scfp
The origin for moment calculation is the CENTER OF MASS  = ( 0.000000,  0.000000 -0.190489)

-------------
DIPOLE MOMENT
-------------
                                X             Y             Z
Electronic contribution:      0.00000       0.00000     110.61207
Nuclear contribution   :      0.00000       0.00000    -975.23990
                        -----------------------------------------
Total Dipole Moment    :      0.00000       0.00000    -864.62783
                        -----------------------------------------
Magnitude (a.u.)       :    864.62783
Magnitude (Debye)      :   2197.70929



--------------------
Rotational spectrum 
--------------------
 
Rotational constants in cm-1:     0.000314     0.000281     0.000280 
Rotational constants in MHz :     9.418928     8.428223     8.386927 

 Dipole components along the rotational axes: 
x,y,z [a.u.] :     0.000001     0.000001  -864.627832 
x,y,z [Debye]:     0.000002     0.000003 -2197.709293 

 

Timings for individual modules:

Sum of individual times         ...     2058.839 sec (=  34.314 min)
GTO integral calculation        ...     1285.661 sec (=  21.428 min)  62.4 %
SCF iterations                  ...      773.177 sec (=  12.886 min)  37.6 %
                             ****ORCA TERMINATED NORMALLY****
TOTAL RUN TIME: 0 days 0 hours 34 minutes 23 seconds 561 msec
