 vasp.6.2.0 18Jan21 (build Mar 03 2021 13:27:41) complex                        
  
 executed on             LinuxIFC date 2021.07.15  03:52:50
 running on  120 total cores
 distrk:  each k-point on  120 cores,    1 groups
 distr:  one band on NCORE=  20 cores,    6 groups


--------------------------------------------------------------------------------------------------------


 INCAR:
   SYSTEM = TiO2-rutile
   ISMEAR = 0
   SIGMA = 0.05
   EDIFF = 1E-5
   ALGO = Fast
   ISTART = 1
   GGA = PS
   ISYM = 0
   IBRION = -1
   NSW = 0
   EDIFFG = -0.01
   ISIF = 0
   ENCUT = 500
   PREC = Accurate
   LASPH = .TRUE.
   LREAL = Auto
   ISPIN = 1
   NELM = 500
   NELMIN = 4
   NCORE = 20
   LWAVE = .FALSE.
   LCHARG = .FALSE.
   LORBIT = 11

 POTCAR:    PAW_PBE Ti_sv 26Sep2005               
 POTCAR:    PAW_PBE O 08Apr2002                   
 POTCAR:    PAW_PBE Ti_sv 26Sep2005               
   SHA256 =  4d747badb5a5ea28d858fbac70885b3f8929d6fd9e5b0dbe1ecb9878dc164da1 Ti_sv/POTCAR          
   COPYR  = (c) Copyright 26Sep2005 Georg Kresse                                                    
   COPYR  = This file is part of the software VASP. Any use, copying, and all other rights are regul
   COPYR  = If you do not have a valid VASP license, you may not use, copy or distribute this file. 
   VRHFIN =Ti: 3p4s3d                                                                               
   LEXCH  = PE                                                                                      
   EATOM  =  1588.0892 eV,  116.7213 Ry                                                             
                                                                                                    
   TITEL  = PAW_PBE Ti_sv 26Sep2005                                                                 
   LULTRA =        F    use ultrasoft PP ?                                                          
   IUNSCR =        1    unscreen: 0-lin 1-nonlin 2-no                                               
   RPACOR =    2.000    partial core radius                                                         
   POMASS =   47.880; ZVAL   =   12.000    mass and valenz                                          
   RCORE  =    2.300    outmost cutoff radius                                                       
   RWIGS  =    2.300; RWIGS  =    1.217    wigner-seitz radius (au A)                               
   ENMAX  =  274.610; ENMIN  =  205.957 eV                                                          
   ICORE  =        3    local potential                                                             
   LCOR   =        T    correct aug charges                                                         
   LPAW   =        T    paw PP                                                                      
   EAUG   =  482.848                                                                                
   RMAX   =    2.348    core radius for proj-oper                                                   
   RAUG   =    1.300    factor for augmentation sphere                                              
   RDEP   =    2.381    radius for radial grids                                                     
   RDEPT  =    1.930    core radius for aug-charge                                                  
                                                                                                    
   Atomic configuration                                                                             
    8 entries                                                                                       
     n  l   j            E        occ.                                                              
     1  0  0.50     -4865.3608   2.0000                                                             
     2  0  0.50      -533.1368   2.0000                                                             
     2  1  1.50      -440.5031   6.0000                                                             
     3  0  0.50       -59.3186   2.0000                                                             
     4  0  0.50        -3.7291   1.0000                                                             
     3  1  1.50       -35.7012   6.0000                                                             
     3  2  2.50        -1.9157   3.0000                                                             
     4  3  2.50        -1.3606   0.0000                                                             
   Description                                                                                      
     l       E           TYP  RCUT    TYP  RCUT                                                     
     0    -59.3185931     23  1.800                                                                 
     0     -3.7290822     23  2.300                                                                 
     1    -35.7012045     23  2.300                                                                 
     1     -1.3605826     23  2.300                                                                 
     2     -1.9156920     23  2.300                                                                 
     2     -0.0236318     23  2.300                                                                 
     3     -1.3605826     23  2.300                                                                 
  local pseudopotential read in
  partial core-charges read in
  partial kinetic energy density read in
  atomic valenz-charges read in
  non local Contribution for L=           0  read in
    real space projection operators read in
  non local Contribution for L=           0  read in
    real space projection operators read in
  non local Contribution for L=           1  read in
    real space projection operators read in
  non local Contribution for L=           1  read in
    real space projection operators read in
  non local Contribution for L=           2  read in
    real space projection operators read in
  non local Contribution for L=           2  read in
    real space projection operators read in
    PAW grid and wavefunctions read in
 
   number of l-projection  operators is LMAX  =           6
   number of lm-projection operators is LMMAX =          18
 
 POTCAR:    PAW_PBE O 08Apr2002                   
   SHA256 =  818f92134a0a090dccd8ba1447fa70422a3b330e708bb4f08108d8ae51209ddf O/POTCAR              
   COPYR  = (c) Copyright 08Apr2002 Georg Kresse                                                    
   COPYR  = This file is part of the software VASP. Any use, copying, and all other rights are regul
   COPYR  = If you do not have a valid VASP license, you may not use, copy or distribute this file. 
   VRHFIN =O: s2p4                                                                                  
   LEXCH  = PE                                                                                      
   EATOM  =   432.3788 eV,   31.7789 Ry                                                             
                                                                                                    
   TITEL  = PAW_PBE O 08Apr2002                                                                     
   LULTRA =        F    use ultrasoft PP ?                                                          
   IUNSCR =        1    unscreen: 0-lin 1-nonlin 2-no                                               
   RPACOR =    1.200    partial core radius                                                         
   POMASS =   16.000; ZVAL   =    6.000    mass and valenz                                          
   RCORE  =    1.520    outmost cutoff radius                                                       
   RWIGS  =    1.550; RWIGS  =    0.820    wigner-seitz radius (au A)                               
   ENMAX  =  400.000; ENMIN  =  300.000 eV                                                          
   ICORE  =        2    local potential                                                             
   LCOR   =        T    correct aug charges                                                         
   LPAW   =        T    paw PP                                                                      
   EAUG   =  605.392                                                                                
   DEXC   =    0.000                                                                                
   RMAX   =    1.553    core radius for proj-oper                                                   
   RAUG   =    1.300    factor for augmentation sphere                                              
   RDEP   =    1.550    radius for radial grids                                                     
   RDEPT  =    1.329    core radius for aug-charge                                                  
                                                                                                    
   Atomic configuration                                                                             
    4 entries                                                                                       
     n  l   j            E        occ.                                                              
     1  0  0.50      -514.6923   2.0000                                                             
     2  0  0.50       -23.9615   2.0000                                                             
     2  1  0.50        -9.0305   4.0000                                                             
     3  2  1.50        -9.5241   0.0000                                                             
   Description                                                                                      
     l       E           TYP  RCUT    TYP  RCUT                                                     
     0    -23.9615318     23  1.200                                                                 
     0     -9.5240782     23  1.200                                                                 
     1     -9.0304911     23  1.520                                                                 
     1      8.1634956     23  1.520                                                                 
     2     -9.5240782      7  1.500                                                                 
  local pseudopotential read in
  partial core-charges read in
  partial kinetic energy density read in
  kinetic energy density of atom read in
  atomic valenz-charges read in
  non local Contribution for L=           0  read in
    real space projection operators read in
  non local Contribution for L=           0  read in
    real space projection operators read in
  non local Contribution for L=           1  read in
    real space projection operators read in
  non local Contribution for L=           1  read in
    real space projection operators read in
    PAW grid and wavefunctions read in
 
   number of l-projection  operators is LMAX  =           4
   number of lm-projection operators is LMMAX =           8
 
 Optimization of the real space projectors (new method)

 maximal supplied QI-value         = 16.25
 optimisation between [QCUT,QGAM] = [ 11.38, 22.75] = [ 36.24,144.96] Ry 
 Optimized for a Real-space Cutoff    1.27 Angstroem

   l    n(q)    QCUT    max X(q) W(low)/X(q) W(high)/X(q)  e(spline) 
   0      9    11.376    12.277    0.53E-04    0.25E-04    0.25E-07
   0      9    11.376    11.419    0.89E-04    0.67E-05    0.35E-07
   1      8    11.376     4.010    0.13E-03    0.11E-03    0.29E-07
   1      8    11.376     6.182    0.94E-04    0.19E-03    0.11E-06
   2      8    11.376    47.177    0.13E-03    0.88E-03    0.24E-06
   2      8    11.376    42.437    0.13E-03    0.86E-03    0.23E-06
 Optimization of the real space projectors (new method)

 maximal supplied QI-value         = 24.76
 optimisation between [QCUT,QGAM] = [ 11.39, 22.77] = [ 36.31,145.25] Ry 
 Optimized for a Real-space Cutoff    1.10 Angstroem

   l    n(q)    QCUT    max X(q) W(low)/X(q) W(high)/X(q)  e(spline) 
   0      7    11.387    20.381    0.22E-03    0.48E-03    0.18E-06
   0      7    11.387    15.268    0.22E-03    0.52E-03    0.19E-06
   1      7    11.387     5.964    0.22E-03    0.73E-03    0.24E-06
   1      7    11.387     5.382    0.19E-03    0.60E-03    0.21E-06
 -----------------------------------------------------------------------------
|                                                                             |
|               ----> ADVICE to this user running VASP <----                  |
|                                                                             |
|     You enforced a specific xc type in the INCAR file but a different       |
|     type was found in the POTCAR file.                                      |
|     I HOPE YOU KNOW WHAT YOU ARE DOING!                                     |
|                                                                             |
 -----------------------------------------------------------------------------

  PAW_PBE Ti_sv 26Sep2005               :
 energy of atom  1       EATOM=-1588.0892
 kinetic energy error for atom=    0.0046 (will be added to EATOM!!)
  PAW_PBE O 08Apr2002                   :
 energy of atom  2       EATOM= -432.3788
 kinetic energy error for atom=    0.0224 (will be added to EATOM!!)
 
 
 POSCAR: Ti  O
  positions in direct lattice
  velocities in cartesian coordinates
 exchange correlation table for  LEXCH =       14
   RHO(1)=    0.500       N(1)  =     2000
   RHO(2)=  100.500       N(2)  =     4000
 


--------------------------------------------------------------------------------------------------------


 ion  position               nearest neighbor table
   1  0.249  0.125  0.109-  68 1.95  83 1.95  67 1.95  84 1.95  65 1.96  66 1.99
   2  1.000  1.000  0.109- 113 1.95 177 1.95  65 1.95 130 1.95  80 1.98  71 1.98
   3  1.000  0.125  0.359-  71 1.94  87 1.94  72 1.94  88 1.95 133 1.98  70 1.98
   4  0.250  1.000  0.359- 117 1.95  69 1.95 118 1.95  70 1.95  75 1.98  68 1.98
   5  0.250  0.125  0.609-  76 1.94  75 1.95  91 1.95  92 1.95  73 1.97  74 1.99
   6  1.000  0.000  0.609-  73 1.95 138 1.95 185 1.95 121 1.95  79 1.97  72 1.98
   7  0.000  0.125  0.859-  96 1.94  80 1.95  95 1.95  79 1.95  78 1.98 141 1.98
   8  0.250  0.000  0.859-  78 1.94 126 1.94  77 1.95 125 1.95  67 1.97  76 1.98
   9  0.250  0.375  0.110-  99 1.94 100 1.94  83 1.95  84 1.95  81 1.97  82 1.99
  10  1.000  0.250  0.109-  81 1.94 146 1.94  65 1.95 130 1.95  87 1.98  96 1.98
  11  1.000  0.375  0.359- 103 1.94 104 1.94  88 1.94  87 1.94 149 1.99  86 1.99
  12  0.250  0.250  0.360-  70 1.93  86 1.93  69 1.95  91 1.97  84 1.98  85 1.99
  13  0.249  0.375  0.609-  92 1.94 107 1.94  91 1.94 108 1.95  89 1.97  90 2.01
  14  0.000  0.250  0.609-  73 1.94 138 1.94  89 1.95 154 1.95  95 1.97  88 1.98
  15  0.000  0.375  0.859- 111 1.94  95 1.95 112 1.95  96 1.95  94 1.98 157 1.98
  16  0.250  0.250  0.859-  78 1.94  94 1.94  77 1.95  93 1.96  83 1.98  92 1.98
  17  0.250  0.625  0.110-  99 1.94 100 1.94 115 1.95 116 1.95  97 1.97  98 1.99
  18  0.000  0.500  0.109-  81 1.95  97 1.95 162 1.95 146 1.95 112 1.97 103 1.98
  19  0.000  0.625  0.359- 103 1.94 104 1.94 120 1.94 119 1.94 102 1.99 165 1.99
  20  0.251  0.500  0.359-  86 1.95 102 1.95  85 1.95 101 1.95 107 1.97 100 1.97
  21  0.249  0.625  0.609- 124 1.94 107 1.94 123 1.94 108 1.95 105 1.97 106 2.01
  22  0.000  0.500  0.609- 105 1.95 169 1.95  89 1.95 154 1.95 111 1.97 104 1.98
  23  0.000  0.625  0.859- 111 1.94 127 1.95 112 1.95 128 1.95 110 1.98 172 1.98
  24  0.250  0.500  0.859-  94 1.94 110 1.94 109 1.95  93 1.95 108 1.98  99 1.98
  25  0.249  0.875  0.109-  68 1.95 115 1.95  67 1.95 116 1.95 113 1.97 114 1.99
  26  0.000  0.750  0.109-  97 1.94 162 1.94 113 1.95 177 1.95 119 1.98 128 1.98
  27  1.000  0.875  0.359-  71 1.94 119 1.94  72 1.94 120 1.95 180 1.98 118 1.98
  28  0.250  0.750  0.360- 118 1.93 102 1.93 117 1.95 123 1.97 116 1.98 101 1.99
  29  0.250  0.875  0.609-  76 1.94  75 1.95 123 1.95 124 1.95 121 1.97 122 1.99
  30  0.000  0.750  0.609- 121 1.94 185 1.94 105 1.95 169 1.95 127 1.97 120 1.98
  31  0.000  0.875  0.859- 128 1.94  80 1.95 127 1.95  79 1.95 126 1.98 188 1.98
  32  0.250  0.750  0.859- 126 1.94 110 1.94 125 1.95 109 1.96 115 1.98 124 1.98
  33  0.751  0.125  0.109- 132 1.95 147 1.95 131 1.95 148 1.95 130 1.96 129 1.99
  34  0.500  0.000  0.107-  66 1.94 129 1.94 114 1.94 176 1.94 144 1.98 135 1.99
  35  0.500  0.119  0.361- 136 1.89 135 1.93 152 1.96  69 1.97 134 1.97 151 1.99  59 2.81  43 2.83

  36  0.750  0.000  0.359- 134 1.95 181 1.95 133 1.95 180 1.95 139 1.98 132 1.98
  37  0.750  0.125  0.609- 140 1.94 139 1.95 155 1.95 156 1.95 138 1.97 137 1.99
  38  0.500  0.000  0.610- 143 1.93  74 1.95 137 1.95 122 1.95 184 1.95 136 1.97
  39  0.500  0.123  0.855- 143 1.92 144 1.94 142 1.97 159 1.97  77 1.97 160 1.97  63 2.90  47 2.91

  40  0.750  1.000  0.859- 188 1.94 141 1.94 189 1.95 142 1.95 131 1.97 140 1.98
  41  0.750  0.375  0.110- 163 1.94 164 1.94 147 1.95 148 1.95 146 1.97 145 1.99
  42  0.500  0.248  0.102- 160 1.90 129 1.93  66 1.93 145 1.96  82 1.96 151 2.00
  43  0.500  0.359  0.342- 151 1.77 167 1.90 152 1.92 150 1.96  85 1.96  35 2.83
  44  0.750  0.250  0.360- 133 1.93 149 1.93 134 1.95 155 1.97 148 1.98 150 1.99
  45  0.751  0.375  0.609- 156 1.94 170 1.94 155 1.94 171 1.95 154 1.97 153 2.01
  46  0.500  0.251  0.604- 137 1.94  74 1.94 152 1.96 153 1.97  90 1.97 159 2.01
  47  0.500  0.370  0.863- 160 1.88 159 1.93  93 1.96 158 1.96 174 1.97 175 1.98  39 2.91
  48  0.750  0.250  0.859- 141 1.94 157 1.94 142 1.95 158 1.96 147 1.98 156 1.98
  49  0.750  0.625  0.110- 163 1.94 164 1.94 178 1.95 179 1.95 162 1.97 161 1.99
  50  0.500  0.500  0.107- 175 1.91  98 1.94 161 1.94 145 1.94  82 1.94 167 2.13
  51  0.500  0.641  0.342- 182 1.77 167 1.90 183 1.92 166 1.96 101 1.96  59 2.83
  52  0.749  0.500  0.359- 149 1.95 165 1.95 150 1.95 166 1.95 170 1.97 164 1.97
  53  0.751  0.625  0.609- 187 1.94 170 1.94 186 1.94 171 1.95 169 1.97 168 2.01
  54  0.500  0.500  0.630- 174 1.78 168 1.92 106 1.92 153 1.92  90 1.92
  55  0.500  0.630  0.863- 191 1.88 190 1.93 109 1.96 173 1.96 174 1.97 175 1.98  63 2.91
  56  0.750  0.500  0.859- 172 1.94 157 1.94 173 1.95 158 1.95 171 1.98 163 1.98
  57  0.751  0.875  0.109- 132 1.95 178 1.95 131 1.95 179 1.95 177 1.97 176 1.99
  58  0.500  0.752  0.102- 191 1.90 176 1.93 114 1.93  98 1.96 161 1.96 182 2.00
  59  0.500  0.881  0.361- 136 1.89 135 1.92 183 1.96 181 1.97 117 1.97 182 1.99  35 2.81  51 2.83

  60  0.750  0.750  0.360- 180 1.93 165 1.93 181 1.95 186 1.97 179 1.98 166 1.99
  61  0.750  0.875  0.609- 140 1.94 139 1.95 186 1.95 187 1.95 185 1.97 184 1.99
  62  0.500  0.749  0.604- 122 1.94 184 1.94 183 1.96 106 1.97 168 1.97 190 2.01
  63  0.500  0.877  0.855- 143 1.92 144 1.94 125 1.97 189 1.97 190 1.97 191 1.97  39 2.90  55 2.91

  64  0.750  0.750  0.859- 188 1.94 172 1.94 189 1.95 173 1.96 178 1.98 187 1.98
  65  0.098  0.125  0.109-   2 1.95  10 1.95   1 1.96
  66  0.402  0.125  0.107-  42 1.93  34 1.94   1 1.99
  67  0.250  1.000  0.011-  25 1.95   1 1.95   8 1.97
  68  0.250  1.000  0.207-  25 1.95   1 1.95   4 1.98
  69  0.349  0.125  0.360-   4 1.95  12 1.95  35 1.97
  70  0.153  0.126  0.359-  12 1.93   4 1.95   3 1.98
  71  1.000  1.000  0.262-   3 1.94  27 1.94   2 1.98
  72  1.000  1.000  0.457-  27 1.94   3 1.94   6 1.98
  73  0.098  0.125  0.609-  14 1.94   6 1.95   5 1.97
  74  0.403  0.126  0.607-  46 1.94  38 1.95   5 1.99
  75  0.250  1.000  0.511-  29 1.95   5 1.95   4 1.98
  76  0.251  1.000  0.707-  29 1.94   5 1.94   8 1.98
  77  0.349  0.125  0.858-  16 1.95   8 1.95  39 1.97
  78  0.152  0.125  0.859-  16 1.94   8 1.94   7 1.98
  79  1.000  1.000  0.761-  31 1.95   7 1.95   6 1.97
  80  1.000  1.000  0.957-  31 1.95   7 1.95   2 1.98
  81  0.098  0.375  0.110-  10 1.94  18 1.95   9 1.97
  82  0.403  0.375  0.111-  50 1.94  42 1.96   9 1.99
  83  0.250  0.250  0.011-   9 1.95   1 1.95  16 1.98
  84  0.251  0.250  0.208-   9 1.95   1 1.95  12 1.98
  85  0.352  0.376  0.361-  20 1.95  43 1.96  12 1.99
  86  0.153  0.375  0.359-  12 1.93  20 1.95  11 1.99
  87  1.000  0.250  0.261-   3 1.94  11 1.94  10 1.98
  88  1.000  0.250  0.457-  11 1.94   3 1.95  14 1.98
  89  0.098  0.375  0.609-  22 1.95  14 1.95  13 1.97
  90  0.404  0.380  0.603-  54 1.92  46 1.97  13 2.01
  91  0.250  0.250  0.511-  13 1.94   5 1.95  12 1.97
  92  0.252  0.251  0.707-  13 1.94   5 1.95  16 1.98
  93  0.349  0.375  0.860-  24 1.95  16 1.96  47 1.96
  94  0.152  0.375  0.859-  16 1.94  24 1.94  15 1.98
  95  1.000  0.250  0.761-  15 1.95   7 1.95  14 1.97
  96  1.000  0.250  0.957-   7 1.94  15 1.95  10 1.98
  97  0.098  0.625  0.110-  26 1.94  18 1.95  17 1.97
  98  0.403  0.625  0.111-  50 1.94  58 1.96  17 1.99
  99  0.251  0.500  0.012-   9 1.94  17 1.94  24 1.98
 100  0.251  0.500  0.208-   9 1.94  17 1.94  20 1.97
 101  0.352  0.624  0.361-  20 1.95  51 1.96  28 1.99
 102  0.153  0.625  0.359-  28 1.93  20 1.95  19 1.99
 103  1.000  0.500  0.261-  11 1.94  19 1.94  18 1.98
 104  1.000  0.500  0.457-  11 1.94  19 1.94  22 1.98
 105  0.098  0.625  0.609-  22 1.95  30 1.95  21 1.97
 106  0.404  0.620  0.603-  54 1.92  62 1.97  21 2.01
 107  0.248  0.500  0.511-  13 1.94  21 1.94  20 1.97
 108  0.252  0.500  0.707-  13 1.95  21 1.95  24 1.98
 109  0.349  0.625  0.860-  24 1.95  32 1.96  55 1.96
 110  0.152  0.625  0.859-  32 1.94  24 1.94  23 1.98
 111  1.000  0.500  0.761-  15 1.94  23 1.94  22 1.97
 112  1.000  0.500  0.957-  15 1.95  23 1.95  18 1.97
 113  0.098  0.875  0.109-   2 1.95  26 1.95  25 1.97
 114  0.402  0.875  0.107-  58 1.93  34 1.94  25 1.99
 115  0.250  0.750  0.011-  17 1.95  25 1.95  32 1.98
 116  0.251  0.750  0.208-  17 1.95  25 1.95  28 1.98
 117  0.349  0.875  0.360-   4 1.95  28 1.95  59 1.97
 118  0.153  0.874  0.359-  28 1.93   4 1.95  27 1.98
 119  1.000  0.750  0.261-  27 1.94  19 1.94  26 1.98
 120  1.000  0.750  0.457-  19 1.94  27 1.95  30 1.98
 121  0.098  0.875  0.609-  30 1.94   6 1.95  29 1.97
 122  0.403  0.874  0.607-  62 1.94  38 1.95  29 1.99
 123  0.250  0.750  0.511-  21 1.94  29 1.95  28 1.97
 124  0.252  0.749  0.707-  21 1.94  29 1.95  32 1.98
 125  0.349  0.875  0.858-  32 1.95   8 1.95  63 1.97
 126  0.152  0.875  0.859-  32 1.94   8 1.94  31 1.98
 127  1.000  0.750  0.761-  23 1.95  31 1.95  30 1.97
 128  1.000  0.750  0.957-  31 1.94  23 1.95  26 1.98
 129  0.598  0.125  0.107-  42 1.93  34 1.94  33 1.99
 130  0.902  0.125  0.109-   2 1.95  10 1.95  33 1.96
 131  0.750  0.000  0.011-  33 1.95  57 1.95  40 1.97
 132  0.749  0.000  0.207-  33 1.95  57 1.95  36 1.98
 133  0.847  0.126  0.359-  44 1.93  36 1.95   3 1.98
 134  0.651  0.125  0.360-  36 1.95  44 1.95  35 1.97
 135  0.500  0.000  0.260-  59 1.92  35 1.93  34 1.99
 136  0.500  1.000  0.459-  35 1.89  59 1.89  38 1.97
 137  0.597  0.126  0.607-  46 1.94  38 1.95  37 1.99
 138  0.902  0.125  0.609-  14 1.94   6 1.95  37 1.97
 139  0.750  1.000  0.511-  61 1.95  37 1.95  36 1.98
 140  0.749  0.000  0.707-  37 1.94  61 1.94  40 1.98
 141  0.848  0.125  0.859-  48 1.94  40 1.94   7 1.98
 142  0.651  0.125  0.858-  48 1.95  40 1.95  39 1.97
 143  0.500  0.000  0.758-  63 1.92  39 1.92  38 1.93
 144  0.500  0.000  0.955-  63 1.94  39 1.94  34 1.98
 145  0.597  0.375  0.111-  50 1.94  42 1.96  41 1.99
 146  0.902  0.375  0.110-  10 1.94  18 1.95  41 1.97
 147  0.750  0.250  0.011-  41 1.95  33 1.95  48 1.98
 148  0.749  0.250  0.208-  41 1.95  33 1.95  44 1.98
 149  0.847  0.375  0.359-  44 1.93  52 1.95  11 1.99
 150  0.648  0.376  0.361-  52 1.95  43 1.96  44 1.99
 151  0.500  0.242  0.256-  43 1.77  35 1.99  42 2.00
 152  0.500  0.252  0.453-  43 1.92  35 1.96  46 1.96
 153  0.596  0.380  0.603-  54 1.92  46 1.97  45 2.01
 154  0.902  0.375  0.609-  22 1.95  14 1.95  45 1.97
 155  0.750  0.250  0.511-  45 1.94  37 1.95  44 1.97
 156  0.748  0.251  0.707-  45 1.94  37 1.95  48 1.98
 157  0.848  0.375  0.859-  48 1.94  56 1.94  15 1.98
 158  0.651  0.375  0.860-  56 1.95  48 1.96  47 1.96
 159  0.500  0.253  0.759-  47 1.93  39 1.97  46 2.01
 160  0.500  0.248  0.956-  47 1.88  42 1.90  39 1.97
 161  0.597  0.625  0.111-  50 1.94  58 1.96  49 1.99
 162  0.902  0.625  0.110-  26 1.94  18 1.95  49 1.97
 163  0.749  0.500  0.012-  41 1.94  49 1.94  56 1.98
 164  0.749  0.500  0.208-  41 1.94  49 1.94  52 1.97
 165  0.847  0.625  0.359-  60 1.93  52 1.95  19 1.99
 166  0.648  0.624  0.361-  52 1.95  51 1.96  60 1.99
 167  0.500  0.500  0.271-  43 1.90  51 1.90  50 2.13
 168  0.596  0.620  0.603-  54 1.92  62 1.97  53 2.01
 169  0.902  0.625  0.609-  22 1.95  30 1.95  53 1.97
 170  0.752  0.500  0.511-  45 1.94  53 1.94  52 1.97
 171  0.748  0.500  0.707-  53 1.95  45 1.95  56 1.98
 172  0.848  0.625  0.859-  64 1.94  56 1.94  23 1.98
 173  0.651  0.625  0.860-  56 1.95  64 1.96  55 1.96
 174  0.500  0.500  0.766-  54 1.78  47 1.97  55 1.97
 175  0.500  0.500  0.960-  50 1.91  47 1.98  55 1.98
 176  0.598  0.875  0.107-  58 1.93  34 1.94  57 1.99
 177  0.902  0.875  0.109-   2 1.95  26 1.95  57 1.97
 178  0.750  0.750  0.011-  49 1.95  57 1.95  64 1.98
 179  0.749  0.750  0.208-  49 1.95  57 1.95  60 1.98
 180  0.847  0.874  0.359-  60 1.93  36 1.95  27 1.98
 181  0.651  0.875  0.360-  36 1.95  60 1.95  59 1.97
 182  0.500  0.758  0.256-  51 1.77  59 1.99  58 2.00
 183  0.500  0.748  0.453-  51 1.92  59 1.96  62 1.96
 184  0.597  0.874  0.607-  62 1.94  38 1.95  61 1.99
 185  0.902  0.875  0.609-  30 1.94   6 1.95  61 1.97
 186  0.750  0.750  0.511-  53 1.94  61 1.95  60 1.97
 187  0.748  0.749  0.707-  53 1.94  61 1.95  64 1.98
 188  0.848  0.875  0.859-  64 1.94  40 1.94  31 1.98
 189  0.651  0.875  0.858-  64 1.95  40 1.95  63 1.97
 190  0.500  0.747  0.759-  55 1.93  63 1.97  62 2.01
 191  0.500  0.752  0.956-  55 1.88  58 1.90  63 1.97
 

IMPORTANT INFORMATION: All symmetrisations will be switched off!
NOSYMM: (Re-)initialisation of all symmetry stuff for point group C_1.


----------------------------------------------------------------------------------------

                                     Primitive cell                                     

  volume of cell :    1987.5462

  direct lattice vectors                    reciprocal lattice vectors
    12.995699245  0.000000000  0.000000000     0.076948534  0.000000000  0.000000000
     0.000000000 11.768413717  0.000000000     0.000000000  0.084973219  0.000000000
     0.000000000  0.000000000 12.995699245     0.000000000  0.000000000  0.076948534

  length of vectors
    12.995699245 11.768413717 12.995699245     0.076948534  0.084973219  0.076948534

  position of ions in fractional coordinates (direct lattice)
     0.249257252  0.125010628  0.109188652
     0.999999785  0.999998431  0.109244152
     0.999999603  0.125022682  0.359377789
     0.250143332  0.999998561  0.359216736
     0.249910611  0.124981329  0.609248476
     0.999999623  0.000000277  0.609434382
     0.000000910  0.125008439  0.859249357
     0.250128456  0.000008128  0.859439103
     0.249977419  0.375151839  0.109511724
     0.999999432  0.250320653  0.109325109
     0.999999224  0.375141748  0.359180611
     0.249756648  0.249789348  0.359506694
     0.249348070  0.375271282  0.608550173
     0.000000614  0.249863583  0.609391773
     0.000003305  0.375084476  0.859235851
     0.249946540  0.250026096  0.859205696
     0.249978208  0.624848433  0.109512717
     0.000000678  0.499999196  0.109202971
     0.000000149  0.624857547  0.359180753
     0.251133282  0.499998294  0.359444285
     0.249351573  0.624728583  0.608548440
     0.000002255  0.500003293  0.609424933
     0.000000032  0.624914426  0.859236282
     0.250222284  0.499998642  0.859310535
     0.249264252  0.874990720  0.109189266
     0.000000763  0.749679242  0.109325037
     0.999998861  0.874975335  0.359377306
     0.249755671  0.750211572  0.359506311
     0.249907307  0.875017778  0.609246643
     0.000000630  0.750131160  0.609391652
     0.000003907  0.874991015  0.859249098
     0.249938054  0.749965397  0.859207085
     0.750743442  0.125009311  0.109190727
     0.499998641  0.000012033  0.107030369
     0.499995734  0.119394498  0.361352589
     0.749854162  0.000000954  0.359216981
     0.750089604  0.124982099  0.609247307
     0.499998856  0.000006028  0.609978383
     0.500051793  0.123351388  0.855095784
     0.749889032  0.999988109  0.859438379
     0.750022042  0.375152172  0.109511857
     0.499999091  0.248221255  0.102338755
     0.500000401  0.359000298  0.342079459
     0.750241029  0.249786723  0.359504549
     0.750669504  0.375274856  0.608541787
     0.500000995  0.251084601  0.604329083
     0.499996013  0.370317173  0.862629336
     0.750071997  0.250045049  0.859204117
     0.750021402  0.624848153  0.109511989
     0.499999936  0.500001613  0.107022699
     0.499999726  0.641017325  0.342101814
     0.748866048  0.499998466  0.359440745
     0.750647721  0.624728696  0.608552726
     0.500001230  0.500005201  0.629593546
     0.499998799  0.629707221  0.862625009
     0.749774480  0.500001981  0.859308772
     0.750731308  0.874983131  0.109189958
     0.499999688  0.751795835  0.102325622
     0.500000044  0.880555463  0.361292224
     0.750243535  0.750211598  0.359506403
     0.750091949  0.875016401  0.609244285
     0.499998897  0.748930287  0.604355564
     0.499992370  0.876705019  0.855130297
     0.750058729  0.749961899  0.859207044
     0.098053554  0.125019521  0.109372629
     0.402184630  0.124870133  0.107189412
     0.249974434  0.999999244  0.010969426
     0.250497435  0.999999493  0.207095689
     0.348570543  0.124667866  0.359600808
     0.152553886  0.125661226  0.359378252
     0.999999741  0.999999419  0.261550075
     0.999999804  0.999998575  0.457243805
     0.098173503  0.125137897  0.609448402
     0.402759144  0.126292134  0.607234774
     0.250255715  0.999999145  0.511259358
     0.251325547  0.999998561  0.706751435
     0.348641249  0.125164218  0.858203687
     0.152477043  0.125204794  0.858603277
     0.999999397  0.999999355  0.761269133
     0.999998077  0.999999251  0.957189867
     0.098077498  0.374935212  0.109501511
     0.402727196  0.374660849  0.111329227
     0.250464481  0.250252885  0.011260920
     0.251327769  0.249927826  0.207529939
     0.351578693  0.376477526  0.361493678
     0.153236044  0.374891179  0.358703527
     0.999999782  0.249980655  0.261465028
     0.999998269  0.250261012  0.457182875
     0.098071591  0.375042855  0.609483750
     0.403527559  0.379671203  0.602532765
     0.250190810  0.250182596  0.511081676
     0.252043717  0.250984569  0.706655591
     0.348922708  0.375228285  0.860124845
     0.152462620  0.375102663  0.858862225
     0.999998651  0.250066701  0.761341579
     0.999998370  0.249937220  0.957165805
     0.098079084  0.625062351  0.109501726
     0.402728508  0.625333466  0.111328698
     0.250752166  0.499998620  0.011652478
     0.250668713  0.499996479  0.207570697
     0.351579533  0.623518750  0.361492883
     0.153236248  0.625106711  0.358703120
     0.999999763  0.499998875  0.261466798
     0.999999128  0.499999069  0.457059216
     0.098071098  0.624955564  0.609483759
     0.403525397  0.620331721  0.602533687
     0.247978233  0.499998145  0.510840241
     0.252022703  0.499999022  0.707015824
     0.348919754  0.624769416  0.860125286
     0.152463545  0.624896868  0.858861608
     0.999998653  0.499998518  0.761301097
     0.999999064  0.499999024  0.957246665
     0.098052357  0.874978516  0.109373089
     0.402186689  0.875129812  0.107191445
     0.250463520  0.749743597  0.011260258
     0.251328181  0.750068318  0.207530361
     0.348571062  0.875330149  0.359598437
     0.152554434  0.874336910  0.359378025
     0.999999508  0.750017179  0.261464786
     0.999999055  0.749736929  0.457182791
     0.098174966  0.874862016  0.609447726
     0.402758148  0.873710858  0.607235351
     0.250190189  0.749816966  0.511081849
     0.252043925  0.749015722  0.706655400
     0.348637399  0.874835230  0.858203223
     0.152478184  0.874792530  0.858603269
     0.999999051  0.749932460  0.761342665
     0.999998449  0.750061367  0.957165460
     0.597812964  0.124871996  0.107188155
     0.901944224  0.125019157  0.109373603
     0.750023130  0.000001426  0.010965786
     0.749499820  0.000000115  0.207094490
     0.847445823  0.125661283  0.359377013
     0.651428235  0.124667947  0.359601598
     0.499999507  0.000001712  0.260092962
     0.499999011  0.999985644  0.458665640
     0.597240353  0.126292589  0.607233810
     0.901824341  0.125137516  0.609448632
     0.749745158  0.999999032  0.511259867
     0.748671928  0.000000452  0.706754010
     0.847517419  0.125205818  0.858599824
     0.651362268  0.125163823  0.858204360
     0.500002180  0.000010072  0.758304085
     0.500001271  0.000003869  0.954665907
     0.597271042  0.374659687  0.111328931
     0.901919347  0.374935513  0.109501929
     0.749534439  0.250252411  0.011259026
     0.748670503  0.249927874  0.207528953
     0.846763186  0.374890927  0.358702821
     0.648421099  0.376478476  0.361493611
     0.499998258  0.242352821  0.256054169
     0.500003390  0.251805621  0.453247337
     0.596471513  0.379670276  0.602531670
     0.901927692  0.375043433  0.609483393
     0.749809747  0.250182616  0.511080890
     0.747954348  0.250984202  0.706656415
     0.847533644  0.375100040  0.858861899
     0.651079166  0.375227152  0.860124884
     0.500002077  0.252841315  0.759251047
     0.499999583  0.248148969  0.956018875
     0.597272710  0.625334918  0.111329142
     0.901919731  0.625062171  0.109501971
     0.749246572  0.499998741  0.011651833
     0.749327259  0.499999258  0.207571259
     0.846763340  0.625106574  0.358702504
     0.648418846  0.623519672  0.361493890
     0.499999617  0.499999396  0.271091773
     0.596474302  0.620332743  0.602533040
     0.901928004  0.624954999  0.609484500
     0.752020786  0.499998679  0.510837867
     0.747977530  0.499998410  0.707015152
     0.847534575  0.624897680  0.858861765
     0.651079889  0.624770275  0.860125250
     0.499999407  0.499999076  0.766279730
     0.499999825  0.499997734  0.959814290
     0.597811855  0.875129723  0.107190896
     0.901945516  0.874979162  0.109373011
     0.749534530  0.749744771  0.011258940
     0.748669768  0.750069919  0.207529816
     0.847444783  0.874336786  0.359376578
     0.651428121  0.875328947  0.359599530
     0.499999807  0.757641708  0.256047804
     0.499994538  0.748191471  0.453241813
     0.597241366  0.873710245  0.607234780
     0.901824326  0.874862316  0.609449698
     0.749809718  0.749816985  0.511081981
     0.747954903  0.749015553  0.706657048
     0.847517162  0.874795522  0.858601430
     0.651362336  0.874837391  0.858203206
     0.499999406  0.747158656  0.759251686
     0.499999706  0.751858535  0.956017074

  ion indices of the primitive-cell ions
   primitive index   ion index
                 1           1
                 2           2
                 3           3
                 4           4
                 5           5
                 6           6
                 7           7
                 8           8
                 9           9
                10          10
                11          11
                12          12
                13          13
                14          14
                15          15
                16          16
                17          17
                18          18
                19          19
                20          20
                21          21
                22          22
                23          23
                24          24
                25          25
                26          26
                27          27
                28          28
                29          29
                30          30
                31          31
                32          32
                33          33
                34          34
                35          35
                36          36
                37          37
                38          38
                39          39
                40          40
                41          41
                42          42
                43          43
                44          44
                45          45
                46          46
                47          47
                48          48
                49          49
                50          50
                51          51
                52          52
                53          53
                54          54
                55          55
                56          56
                57          57
                58          58
                59          59
                60          60
                61          61
                62          62
                63          63
                64          64
                65          65
                66          66
                67          67
                68          68
                69          69
                70          70
                71          71
                72          72
                73          73
                74          74
                75          75
                76          76
                77          77
                78          78
                79          79
                80          80
                81          81
                82          82
                83          83
                84          84
                85          85
                86          86
                87          87
                88          88
                89          89
                90          90
                91          91
                92          92
                93          93
                94          94
                95          95
                96          96
                97          97
                98          98
                99          99
               100         100
               101         101
               102         102
               103         103
               104         104
               105         105
               106         106
               107         107
               108         108
               109         109
               110         110
               111         111
               112         112
               113         113
               114         114
               115         115
               116         116
               117         117
               118         118
               119         119
               120         120
               121         121
               122         122
               123         123
               124         124
               125         125
               126         126
               127         127
               128         128
               129         129
               130         130
               131         131
               132         132
               133         133
               134         134
               135         135
               136         136
               137         137
               138         138
               139         139
               140         140
               141         141
               142         142
               143         143
               144         144
               145         145
               146         146
               147         147
               148         148
               149         149
               150         150
               151         151
               152         152
               153         153
               154         154
               155         155
               156         156
               157         157
               158         158
               159         159
               160         160
               161         161
               162         162
               163         163
               164         164
               165         165
               166         166
               167         167
               168         168
               169         169
               170         170
               171         171
               172         172
               173         173
               174         174
               175         175
               176         176
               177         177
               178         178
               179         179
               180         180
               181         181
               182         182
               183         183
               184         184
               185         185
               186         186
               187         187
               188         188
               189         189
               190         190
               191         191

----------------------------------------------------------------------------------------

 
 
 KPOINTS: pymatgen v2020.8.13 with grid density = 

Automatic generation of k-mesh.
 Grid dimensions read from file:
 generate k-points for:    2    2    2

 Generating k-lattice:

  Cartesian coordinates                     Fractional coordinates (reciprocal lattice)
     0.038474267  0.000000000  0.000000000     0.500000000  0.000000000  0.000000000
     0.000000000  0.042486610  0.000000000     0.000000000  0.500000000  0.000000000
     0.000000000  0.000000000  0.038474267     0.000000000  0.000000000  0.500000000

  Length of vectors
     0.038474267  0.042486610  0.038474267

  Shift w.r.t. Gamma in fractional coordinates (k-lattice)
     0.000000000  0.000000000  0.000000000

 
 Subroutine IBZKPT returns following result:
 ===========================================
 
 Found      8 irreducible k-points:
 
 Following reciprocal coordinates:
            Coordinates               Weight
  0.000000  0.000000  0.000000      1.000000
  0.500000  0.000000  0.000000      1.000000
  0.000000  0.000000  0.500000      1.000000
  0.000000  0.500000  0.000000      1.000000
  0.500000  0.500000  0.000000      1.000000
  0.000000  0.500000  0.500000      1.000000
  0.500000  0.000000  0.500000      1.000000
  0.500000  0.500000  0.500000      1.000000
 
 Following cartesian coordinates:
            Coordinates               Weight
  0.000000  0.000000  0.000000      1.000000
  0.038474  0.000000  0.000000      1.000000
  0.000000  0.000000  0.038474      1.000000
  0.000000  0.042487  0.000000      1.000000
  0.038474  0.042487  0.000000      1.000000
  0.000000  0.042487  0.038474      1.000000
  0.038474  0.000000  0.038474      1.000000
  0.038474  0.042487  0.038474      1.000000
 


--------------------------------------------------------------------------------------------------------




 Dimension of arrays:
   k-points           NKPTS =      8   k-points in BZ     NKDIM =      8   number of bands    NBANDS=    918
   number of dos      NEDOS =    301   number of ions     NIONS =    191
   non local maximal  LDIM  =      6   non local SUM 2l+1 LMDIM =     18
   total plane-waves  NPLWV = 829440
   max r-space proj   IRMAX =   3646   max aug-charges    IRDMAX=  16400
   dimension x,y,z NGX =    96 NGY =   90 NGZ =   96
   dimension x,y,z NGXF=   192 NGYF=  180 NGZF=  192
   support grid    NGXF=   192 NGYF=  180 NGZF=  192
   ions per type =              64 127
   NGX,Y,Z   is equivalent  to a cutoff of  12.28, 12.71, 12.28 a.u.
   NGXF,Y,Z  is equivalent  to a cutoff of  24.56, 25.43, 24.56 a.u.

 SYSTEM =  TiO2-rutile                             
 POSCAR =  Ti  O                                   

 Startparameter for this run:
   NWRITE =      2    write-flag & timer
   PREC   = accura    normal or accurate (medium, high low for compatibility)
   ISTART =      0    job   : 0-new  1-cont  2-samecut
   ICHARG =      2    charge: 1-file 2-atom 10-const
   ISPIN  =      1    spin polarized calculation?
   LNONCOLLINEAR =      F non collinear calculations
   LSORBIT =      F    spin-orbit coupling
   INIWAV =      1    electr: 0-lowe 1-rand  2-diag
   LASPH  =      T    aspherical Exc in radial PAW
   METAGGA=      F    non-selfconsistent MetaGGA calc.

 Electronic Relaxation 1
   ENCUT  =  500.0 eV  36.75 Ry    6.06 a.u.  23.69 21.46 23.69*2*pi/ulx,y,z
   ENINI  =  500.0     initial cutoff
   ENAUG  =  605.4 eV  augmentation charge cutoff
   NELM   =    500;   NELMIN=  4; NELMDL=  0     # of ELM steps 
   EDIFF  = 0.1E-04   stopping-criterion for ELM
   LREAL  =      T    real-space projection
   NLSPLINE    = F    spline interpolate recip. space projectors
   LCOMPAT=      F    compatible to vasp.4.4
   GGA_COMPAT  = T    GGA compatible to vasp.4.4-vasp.4.6
   LMAXPAW     = -100 max onsite density
   LMAXMIX     =    2 max onsite mixed and CHGCAR
   VOSKOWN=      0    Vosko Wilk Nusair interpolation
   ROPT   =   -0.00025  -0.00025
 Ionic relaxation
   EDIFFG = -.1E-01   stopping-criterion for IOM
   NSW    =      0    number of steps for IOM
   NBLOCK =      1;   KBLOCK =      1    inner block; outer block 
   IBRION =     -1    ionic relax: 0-MD 1-quasi-New 2-CG
   NFREE  =      0    steps in history (QN), initial steepest desc. (CG)
   ISIF   =      0    stress and relaxation
   IWAVPR =     10    prediction:  0-non 1-charg 2-wave 3-comb
   ISYM   =      0    0-nonsym 1-usesym 2-fastsym
   LCORR  =      T    Harris-Foulkes like correction to forces

   POTIM  = 0.5000    time-step for ionic-motion
   TEIN   =    0.0    initial temperature
   TEBEG  =    0.0;   TEEND  =   0.0 temperature during run
   SMASS  =  -3.00    Nose mass-parameter (am)
   estimated Nose-frequenzy (Omega)   =  0.10E-29 period in steps = 0.13E+47 mass=  -0.386E-26a.u.
   SCALEE = 1.0000    scale energy and forces
   NPACO  =    256;   APACO  = 16.0  distance and # of slots for P.C.
   PSTRESS=    0.0 pullay stress

  Mass of Ions in am
   POMASS =  47.88 16.00
  Ionic Valenz
   ZVAL   =  12.00  6.00
  Atomic Wigner-Seitz radii
   RWIGS  =  -1.00 -1.00
  virtual crystal weights 
   VCA    =   1.00  1.00
   NELECT =    1530.0000    total number of electrons
   NUPDOWN=      -1.0000    fix difference up-down

 DOS related values:
   EMIN   =  10.00;   EMAX   =-10.00  energy-range for DOS
   EFERMI =   0.00
   ISMEAR =     0;   SIGMA  =   0.05  broadening in eV -4-tet -1-fermi 0-gaus

 Electronic relaxation 2 (details)
   IALGO  =     68    algorithm
   LDIAG  =      T    sub-space diagonalisation (order eigenvalues)
   LSUBROT=      F    optimize rotation matrix (better conditioning)
   TURBO    =      0    0=normal 1=particle mesh
   IRESTART =      0    0=no restart 2=restart with 2 vectors
   NREBOOT  =      0    no. of reboots
   NMIN     =      0    reboot dimension
   EREF     =   0.00    reference energy to select bands
   IMIX   =      4    mixing-type and parameters
     AMIX     =   0.40;   BMIX     =  1.00
     AMIX_MAG =   1.60;   BMIX_MAG =  1.00
     AMIN     =   0.10
     WC   =   100.;   INIMIX=   1;  MIXPRE=   1;  MAXMIX= -45

 Intra band minimization:
   WEIMIN = 0.0000     energy-eigenvalue tresh-hold
   EBREAK =  0.27E-08  absolut break condition
   DEPER  =   0.30     relativ break condition  

   TIME   =   0.40     timestep for ELM

  volume/ion in A,a.u.               =      10.41        70.22
  Fermi-wavevector in a.u.,A,eV,Ry     =   1.500374  2.835296 30.628381  2.251122
  Thomas-Fermi vector in A             =   2.611883
 
 Write flags
   LWAVE        =      F    write WAVECAR
   LDOWNSAMPLE  =      F    k-point downsampling of WAVECAR
   LCHARG       =      F    write CHGCAR
   LVTOT        =      F    write LOCPOT, total local potential
   LVHAR        =      F    write LOCPOT, Hartree potential only
   LELF         =      F    write electronic localiz. function (ELF)
   LORBIT       =     11    0 simple, 1 ext, 2 COOP (PROOUT), +10 PAW based schemes


 Dipole corrections
   LMONO  =      F    monopole corrections only (constant potential shift)
   LDIPOL =      F    correct potential (dipole corrections)
   IDIPOL =      0    1-x, 2-y, 3-z, 4-all directions 
   EPSILON=  1.0000000 bulk dielectric constant

 Exchange correlation treatment:
   GGA     =    PS    GGA type
   LEXCH   =    14    internal setting for exchange type
   VOSKOWN=      0    Vosko Wilk Nusair interpolation
   LHFCALC =     F    Hartree Fock is set to
   LHFONE  =     F    Hartree Fock one center treatment
   AEXX    =    0.0000 exact exchange contribution

 Linear response parameters
   LEPSILON=     F    determine dielectric tensor
   LRPA    =     F    only Hartree local field effects (RPA)
   LNABLA  =     F    use nabla operator in PAW spheres
   LVEL    =     F    velocity operator in full k-point grid
   LINTERFAST=   F  fast interpolation
   KINTER  =     0    interpolate to denser k-point grid
   CSHIFT  =0.1000    complex shift for real part using Kramers Kronig
   OMEGAMAX=  -1.0    maximum frequency
   DEG_THRESHOLD= 0.2000000E-02 threshold for treating states as degnerate
   RTIME   =   -0.100 relaxation time in fs
  (WPLASMAI=    0.000 imaginary part of plasma frequency in eV, 0.658/RTIME)
   DFIELD  = 0.0000000 0.0000000 0.0000000 field for delta impulse in time
 
 Orbital magnetization related:
   ORBITALMAG=     F  switch on orbital magnetization
   LCHIMAG   =     F  perturbation theory with respect to B field
   DQ        =  0.001000  dq finite difference perturbation B field
   LLRAUG    =     F  two centre corrections for induced B field



--------------------------------------------------------------------------------------------------------


 Static calculation
 charge density and potential will be updated during run
 non-spin polarized calculation
 RMM-DIIS sequential band-by-band and
  variant of blocked Davidson during initial phase
 perform sub-space diagonalisation
    before iterative eigenvector-optimisation
 modified Broyden-mixing scheme, WC =      100.0
 initial mixing is a Kerker type mixing with AMIX =  0.4000 and BMIX =      1.0000
 Hartree-type preconditioning will be used
 using additional bands          153
 real space projection scheme for non local part
 use partial core corrections
 calculate Harris-corrections to forces 
   (improved forces if not selfconsistent)
 use gradient corrections 
 use of overlap-Matrix (Vanderbilt PP)
 Gauss-broadening in eV      SIGMA  =   0.05


--------------------------------------------------------------------------------------------------------


  energy-cutoff  :      500.00
  volume of cell :     1987.55
      direct lattice vectors                 reciprocal lattice vectors
    12.995699245  0.000000000  0.000000000     0.076948534  0.000000000  0.000000000
     0.000000000 11.768413717  0.000000000     0.000000000  0.084973219  0.000000000
     0.000000000  0.000000000 12.995699245     0.000000000  0.000000000  0.076948534

  length of vectors
    12.995699245 11.768413717 12.995699245     0.076948534  0.084973219  0.076948534


 
 k-points in units of 2pi/SCALE and weight: pymatgen v2020.8.13 with grid density = 
   0.00000000  0.00000000  0.00000000       0.125
   0.03847427  0.00000000  0.00000000       0.125
   0.00000000  0.00000000  0.03847427       0.125
   0.00000000  0.04248661  0.00000000       0.125
   0.03847427  0.04248661  0.00000000       0.125
   0.00000000  0.04248661  0.03847427       0.125
   0.03847427  0.00000000  0.03847427       0.125
   0.03847427  0.04248661  0.03847427       0.125
 
 k-points in reciprocal lattice and weights: pymatgen v2020.8.13 with grid density = 
   0.00000000  0.00000000  0.00000000       0.125
   0.50000000  0.00000000  0.00000000       0.125
   0.00000000  0.00000000  0.50000000       0.125
   0.00000000  0.50000000  0.00000000       0.125
   0.50000000  0.50000000  0.00000000       0.125
   0.00000000  0.50000000  0.50000000       0.125
   0.50000000  0.00000000  0.50000000       0.125
   0.50000000  0.50000000  0.50000000       0.125
 
 position of ions in fractional coordinates (direct lattice) 
   0.24925725  0.12501063  0.10918865
   0.99999979  0.99999843  0.10924415
   0.99999960  0.12502268  0.35937779
   0.25014333  0.99999856  0.35921674
   0.24991061  0.12498133  0.60924848
   0.99999962  0.00000028  0.60943438
   0.00000091  0.12500844  0.85924936
   0.25012846  0.00000813  0.85943910
   0.24997742  0.37515184  0.10951172
   0.99999943  0.25032065  0.10932511
   0.99999922  0.37514175  0.35918061
   0.24975665  0.24978935  0.35950669
   0.24934807  0.37527128  0.60855017
   0.00000061  0.24986358  0.60939177
   0.00000330  0.37508448  0.85923585
   0.24994654  0.25002610  0.85920570
   0.24997821  0.62484843  0.10951272
   0.00000068  0.49999920  0.10920297
   0.00000015  0.62485755  0.35918075
   0.25113328  0.49999829  0.35944428
   0.24935157  0.62472858  0.60854844
   0.00000225  0.50000329  0.60942493
   0.00000003  0.62491443  0.85923628
   0.25022228  0.49999864  0.85931053
   0.24926425  0.87499072  0.10918927
   0.00000076  0.74967924  0.10932504
   0.99999886  0.87497534  0.35937731
   0.24975567  0.75021157  0.35950631
   0.24990731  0.87501778  0.60924664
   0.00000063  0.75013116  0.60939165
   0.00000391  0.87499101  0.85924910
   0.24993805  0.74996540  0.85920709
   0.75074344  0.12500931  0.10919073
   0.49999864  0.00001203  0.10703037
   0.49999573  0.11939450  0.36135259
   0.74985416  0.00000095  0.35921698
   0.75008960  0.12498210  0.60924731
   0.49999886  0.00000603  0.60997838
   0.50005179  0.12335139  0.85509578
   0.74988903  0.99998811  0.85943838
   0.75002204  0.37515217  0.10951186
   0.49999909  0.24822126  0.10233876
   0.50000040  0.35900030  0.34207946
   0.75024103  0.24978672  0.35950455
   0.75066950  0.37527486  0.60854179
   0.50000099  0.25108460  0.60432908
   0.49999601  0.37031717  0.86262934
   0.75007200  0.25004505  0.85920412
   0.75002140  0.62484815  0.10951199
   0.49999994  0.50000161  0.10702270
   0.49999973  0.64101732  0.34210181
   0.74886605  0.49999847  0.35944075
   0.75064772  0.62472870  0.60855273
   0.50000123  0.50000520  0.62959355
   0.49999880  0.62970722  0.86262501
   0.74977448  0.50000198  0.85930877
   0.75073131  0.87498313  0.10918996
   0.49999969  0.75179583  0.10232562
   0.50000004  0.88055546  0.36129222
   0.75024354  0.75021160  0.35950640
   0.75009195  0.87501640  0.60924429
   0.49999890  0.74893029  0.60435556
   0.49999237  0.87670502  0.85513030
   0.75005873  0.74996190  0.85920704
   0.09805355  0.12501952  0.10937263
   0.40218463  0.12487013  0.10718941
   0.24997443  0.99999924  0.01096943
   0.25049744  0.99999949  0.20709569
   0.34857054  0.12466787  0.35960081
   0.15255389  0.12566123  0.35937825
   0.99999974  0.99999942  0.26155008
   0.99999980  0.99999857  0.45724380
   0.09817350  0.12513790  0.60944840
   0.40275914  0.12629213  0.60723477
   0.25025572  0.99999914  0.51125936
   0.25132555  0.99999856  0.70675143
   0.34864125  0.12516422  0.85820369
   0.15247704  0.12520479  0.85860328
   0.99999940  0.99999936  0.76126913
   0.99999808  0.99999925  0.95718987
   0.09807750  0.37493521  0.10950151
   0.40272720  0.37466085  0.11132923
   0.25046448  0.25025289  0.01126092
   0.25132777  0.24992783  0.20752994
   0.35157869  0.37647753  0.36149368
   0.15323604  0.37489118  0.35870353
   0.99999978  0.24998065  0.26146503
   0.99999827  0.25026101  0.45718287
   0.09807159  0.37504285  0.60948375
   0.40352756  0.37967120  0.60253277
   0.25019081  0.25018260  0.51108168
   0.25204372  0.25098457  0.70665559
   0.34892271  0.37522828  0.86012484
   0.15246262  0.37510266  0.85886222
   0.99999865  0.25006670  0.76134158
   0.99999837  0.24993722  0.95716580
   0.09807908  0.62506235  0.10950173
   0.40272851  0.62533347  0.11132870
   0.25075217  0.49999862  0.01165248
   0.25066871  0.49999648  0.20757070
   0.35157953  0.62351875  0.36149288
   0.15323625  0.62510671  0.35870312
   0.99999976  0.49999887  0.26146680
   0.99999913  0.49999907  0.45705922
   0.09807110  0.62495556  0.60948376
   0.40352540  0.62033172  0.60253369
   0.24797823  0.49999815  0.51084024
   0.25202270  0.49999902  0.70701582
   0.34891975  0.62476942  0.86012529
   0.15246354  0.62489687  0.85886161
   0.99999865  0.49999852  0.76130110
   0.99999906  0.49999902  0.95724666
   0.09805236  0.87497852  0.10937309
   0.40218669  0.87512981  0.10719145
   0.25046352  0.74974360  0.01126026
   0.25132818  0.75006832  0.20753036
   0.34857106  0.87533015  0.35959844
   0.15255443  0.87433691  0.35937803
   0.99999951  0.75001718  0.26146479
   0.99999905  0.74973693  0.45718279
   0.09817497  0.87486202  0.60944773
   0.40275815  0.87371086  0.60723535
   0.25019019  0.74981697  0.51108185
   0.25204393  0.74901572  0.70665540
   0.34863740  0.87483523  0.85820322
   0.15247818  0.87479253  0.85860327
   0.99999905  0.74993246  0.76134266
   0.99999845  0.75006137  0.95716546
   0.59781296  0.12487200  0.10718815
   0.90194422  0.12501916  0.10937360
   0.75002313  0.00000143  0.01096579
   0.74949982  0.00000011  0.20709449
   0.84744582  0.12566128  0.35937701
   0.65142823  0.12466795  0.35960160
   0.49999951  0.00000171  0.26009296
   0.49999901  0.99998564  0.45866564
   0.59724035  0.12629259  0.60723381
   0.90182434  0.12513752  0.60944863
   0.74974516  0.99999903  0.51125987
   0.74867193  0.00000045  0.70675401
   0.84751742  0.12520582  0.85859982
   0.65136227  0.12516382  0.85820436
   0.50000218  0.00001007  0.75830409
   0.50000127  0.00000387  0.95466591
   0.59727104  0.37465969  0.11132893
   0.90191935  0.37493551  0.10950193
   0.74953444  0.25025241  0.01125903
   0.74867050  0.24992787  0.20752895
   0.84676319  0.37489093  0.35870282
   0.64842110  0.37647848  0.36149361
   0.49999826  0.24235282  0.25605417
   0.50000339  0.25180562  0.45324734
   0.59647151  0.37967028  0.60253167
   0.90192769  0.37504343  0.60948339
   0.74980975  0.25018262  0.51108089
   0.74795435  0.25098420  0.70665641
   0.84753364  0.37510004  0.85886190
   0.65107917  0.37522715  0.86012488
   0.50000208  0.25284131  0.75925105
   0.49999958  0.24814897  0.95601888
   0.59727271  0.62533492  0.11132914
   0.90191973  0.62506217  0.10950197
   0.74924657  0.49999874  0.01165183
   0.74932726  0.49999926  0.20757126
   0.84676334  0.62510657  0.35870250
   0.64841885  0.62351967  0.36149389
   0.49999962  0.49999940  0.27109177
   0.59647430  0.62033274  0.60253304
   0.90192800  0.62495500  0.60948450
   0.75202079  0.49999868  0.51083787
   0.74797753  0.49999841  0.70701515
   0.84753458  0.62489768  0.85886177
   0.65107989  0.62477027  0.86012525
   0.49999941  0.49999908  0.76627973
   0.49999982  0.49999773  0.95981429
   0.59781185  0.87512972  0.10719090
   0.90194552  0.87497916  0.10937301
   0.74953453  0.74974477  0.01125894
   0.74866977  0.75006992  0.20752982
   0.84744478  0.87433679  0.35937658
   0.65142812  0.87532895  0.35959953
   0.49999981  0.75764171  0.25604780
   0.49999454  0.74819147  0.45324181
   0.59724137  0.87371025  0.60723478
   0.90182433  0.87486232  0.60944970
   0.74980972  0.74981699  0.51108198
   0.74795490  0.74901555  0.70665705
   0.84751716  0.87479552  0.85860143
   0.65136234  0.87483739  0.85820321
   0.49999941  0.74715866  0.75925169
   0.49999971  0.75185854  0.95601707
 
 position of ions in cartesian coordinates  (Angst):
   3.23927228  1.47117679  1.41898288
  12.99569645 11.76839526  1.41970415
  12.99569409  1.47131865  4.67036567
   3.25078751 11.76839678  4.66827266
   3.24776314  1.47083199  7.91760995
  12.99569435  0.00000326  7.92002594
   0.00001182  1.47115103 11.16654622
   3.25059419  0.00009565 11.16901211
   3.24863136  4.41494205  1.42318142
  12.99569187  2.94587700  1.42075624
  12.99568916  4.41482329  4.66780320
   3.24576228  2.93962439  4.67204088
   3.24045252  4.41634770  7.90853502
   0.00000798  2.94049802  7.91947221
   0.00004294  4.41414930 11.16637070
   3.24823006  2.94241054 11.16597881
   3.24864161  7.35347487  1.42319433
   0.00000882  5.88419740  1.41916897
   0.00000194  7.35358213  4.66780504
   3.26365260  5.88418678  4.67122982
   3.24049805  7.35206442  7.90851250
   0.00002930  5.88424561  7.91990314
   0.00000042  7.35425150 11.16637630
   3.25181355  5.88419088 11.16734127
   3.23936325 10.29725280  1.41899086
   0.00000992  8.82253548  1.42075531
  12.99568445 10.29707174  4.67035939
   3.24574959  8.82880015  4.67203590
   3.24772020 10.29757122  7.91758614
   0.00000819  8.82785383  7.91947064
   0.00005078 10.29725626 11.16654286
   3.24811978  8.82590306 11.16599687
   9.75643598  1.47116129  1.41900985
   6.49783196  0.00014161  1.39093449
   6.49779419  1.40508384  4.69602957
   9.74487917  0.00001123  4.66827585
   9.74793891  1.47084105  7.91759476
   6.49783476  0.00007094  7.92709561
   6.49852271  1.45165016 11.11256764
   9.74533232 11.76827378 11.16900269
   9.74706088  4.41494597  1.42318316
   6.49783781  2.92117043  1.32996368
   6.49785483  4.22486403  4.44556177
   9.74990677  2.93959349  4.67201300
   9.75547511  4.41638976  7.90842604
   6.49786255  2.95486746  7.85367900
   6.49779781  4.35804570 11.21047141
   9.74771009  2.94263358 11.16595830
   9.74705257  7.35347158  1.42318488
   6.49784879  5.88422584  1.39083481
   6.49784607  7.54375707  4.44585229
   9.73203793  5.88418881  4.67118382
   9.75519203  7.35206575  7.90856820
   6.49786561  5.88426807  8.18200837
   6.49783402  7.41065510 11.21041518
   9.74384364  5.88423017 11.16731835
   9.75627829 10.29716348  1.41899986
   6.49784557  8.84744441  1.32979301
   6.49785020 10.36274099  4.69524508
   9.74993934  8.82880046  4.67203709
   9.74796937 10.29755501  7.91755550
   6.49783529  8.81372147  7.85402314
   6.49775046 10.31742737 11.11301615
   9.74753766  8.82586190 11.16599634
   1.27427450  1.47128144  1.42137380
   5.22667049  1.46952339  1.39300136
   3.24859256 11.76840482  0.14255536
   3.25538933 11.76840774  2.69135329
   4.52991795  1.46714302  4.67326395
   1.98254442  1.47883330  4.67037168
  12.99569588 11.76840688  3.39902612
  12.99569669 11.76839695  5.94220297
   1.27583332  1.47267455  7.92020813
   5.23413671  1.48625808  7.89144050
   3.25224801 11.76840365  6.64417285
   3.26615122 11.76839678  9.18472909
   4.53083682  1.47298430 11.15295701
   1.98154579  1.47346181 11.15814996
  12.99569141 11.76840613  9.89322469
  12.99567426 11.76840490 12.43935163
   1.27458567  4.41239270  1.42304871
   5.23372151  4.40916387  1.44680115
   3.25496107  2.94507949  0.14634353
   3.26618010  2.94125405  2.69699667
   4.56901095  4.43054328  4.69786312
   1.99140954  4.41187449  4.66160316
  12.99569641  2.94187577  3.39792087
  12.99567675  2.94517512  5.94141114
   1.27450891  4.41365948  7.92066751
   5.24412279  4.46812779  7.83033460
   3.25140452  2.94425230  6.64186375
   3.27548434  2.95369024  9.18348353
   4.53449458  4.41584169 11.17792379
   1.98135836  4.41436333 11.16151516
  12.99568171  2.94288840  9.89416619
  12.99567807  2.94136461 12.43903892
   1.27460628  7.35599235  1.42305150
   5.23373857  7.35918293  1.44679428
   3.25869973  5.88419062  0.15143209
   3.25761521  5.88416542  2.69752635
   4.56902187  7.33782662  4.69785279
   1.99141219  7.35651439  4.66159786
  12.99569616  5.88419362  3.39794386
  12.99568791  5.88419590  5.93980411
   1.27450249  7.35473564  7.92066763
   5.24409470  7.30032033  7.83034659
   3.22265053  5.88418503  6.63872613
   3.27521125  5.88419535  9.18816501
   4.53445618  7.35254497 11.17792953
   1.98137038  7.35404488 11.16150715
  12.99568174  5.88418942  9.89364009
  12.99568708  5.88419537 12.44008976
   1.27425894 10.29710917  1.42137976
   5.22669725 10.29888968  1.39302778
   3.25494857  8.82329283  0.14633493
   3.26618545  8.82711429  2.69700215
   4.52992469 10.30124733  4.67323313
   1.98255155 10.28955848  4.67036873
  12.99569285  8.82651246  3.39791772
  12.99568696  8.82321436  5.94141005
   1.27585233 10.29573815  7.92019935
   5.23412377 10.28219085  7.89144799
   3.25139645  8.82415627  6.64186600
   3.27548705  8.81472690  9.18348105
   4.53078678 10.29542292 11.15295098
   1.98156063 10.29492041 11.15814986
  12.99568691  8.82551545  9.89418029
  12.99567908  8.82703248 12.43903445
   7.76899749  1.46954531  1.39298502
  11.72139587  1.47127716  1.42138645
   9.74707502  0.00001679  0.14250806
   9.74027424  0.00000135  2.69133771
  11.01315104  1.47883397  4.67035557
   8.46576542  1.46714397  4.67327422
   6.49784321  0.00002015  3.38008991
   6.49783677 11.76824478  5.96068071
   7.76155600  1.48626344  7.89142797
  11.71983791  1.47267006  7.92021113
   9.74346259 11.76840233  6.64417947
   9.72951521  0.00000532  9.18476255
  11.01408148  1.47347387 11.15810509
   8.46490814  1.47297965 11.15296575
   6.49787796  0.00011853  9.85469183
   6.49786614  0.00004553 12.40655101
   7.76195483  4.40915020  1.44679731
  11.72107257  4.41239624  1.42305414
   9.74072414  2.94507391  0.14631891
   9.72949668  2.94125462  2.69698385
  11.00427970  4.41187153  4.66159397
   8.42668558  4.43055446  4.69786225
   6.49782699  2.85210826  3.32760297
   6.49789367  2.96335273  5.89026608
   7.75156439  4.46811688  7.83032036
  11.72118103  4.41366628  7.92066287
   9.74430196  2.94425253  6.64185354
   9.72018976  2.95368592  9.18349423
  11.01429234  4.41433245 11.16151094
   8.46122902  4.41582836 11.17792430
   6.49787662  2.97554120  9.86699825
   6.49784420  2.92031974 12.42413378
   7.76197650  7.35920003  1.44680005
  11.72107757  7.35599022  1.42305468
   9.73698311  5.88419205  0.15142372
   9.73803169  5.88419812  2.69753365
  11.00428170  7.35651278  4.66158986
   8.42665631  7.33783746  4.69786588
   6.49784465  5.88419976  3.52302715
   7.75160063  7.30033236  7.83033817
  11.72118507  7.35472898  7.92067726
   9.77303596  5.88419131  6.63869528
   9.72049102  5.88418815  9.18815628
  11.01430444  7.35405442 11.16150919
   8.46123842  7.35255507 11.17792906
   6.49784191  5.88419598  9.95834091
   6.49784734  5.88418019 12.47345784
   7.76898307 10.29888864  1.39302064
  11.72141267 10.29711677  1.42137876
   9.74072533  8.82330664  0.14631780
   9.72948714  8.82713312  2.69699508
  11.01313753 10.28955703  4.67034993
   8.46576394 10.30123319  4.67324734
   6.49784712  8.91624107  3.32752025
   6.49777864  8.80502678  5.89019429
   7.76156917 10.28218363  7.89144057
  11.71983771 10.29574167  7.92022498
   9.74430158  8.82415649  6.64186772
   9.72019697  8.81472491  9.18350246
  11.01407814 10.29495562 11.15812595
   8.46490901 10.29544835 11.15295075
   6.49784190  8.79287217  9.86700657
   6.49784580  8.84818230 12.42411037
 


--------------------------------------------------------------------------------------------------------


 k-point   1 :   0.0000 0.0000 0.0000  plane waves:   50351
 k-point   2 :   0.5000 0.0000 0.0000  plane waves:   50456
 k-point   3 :   0.0000 0.0000 0.5000  plane waves:   50456
 k-point   4 :   0.0000 0.5000 0.0000  plane waves:   50490
 k-point   5 :   0.5000 0.5000 0.0000  plane waves:   50400
 k-point   6 :   0.0000 0.5000 0.5000  plane waves:   50400
 k-point   7 :   0.5000 0.0000 0.5000  plane waves:   50532
 k-point   8 :   0.5000 0.5000 0.5000  plane waves:   50456

 maximum and minimum number of plane-waves per node :      2562     2488

 maximum number of plane-waves:     50532
 maximum index in each direction: 
   IXMAX=   23   IYMAX=   21   IZMAX=   23
   IXMIN=  -24   IYMIN=  -21   IZMIN=  -24


 real space projection operators:
  total allocation   :      49254.53 KBytes
  max/ min on nodes  :       2894.23       1446.47


 parallel 3D FFT for wavefunctions:
    minimum data exchange during FFTs selected (reduces bandwidth)
 parallel 3D FFT for charge:
    minimum data exchange during FFTs selected (reduces bandwidth)


 total amount of memory used by VASP MPI-rank0   106096. kBytes
=======================================================================

   base      :      30000. kBytes
   nonlr-proj:      14729. kBytes
   fftplans  :       3524. kBytes
   grid      :       5634. kBytes
   one-center:        155. kBytes
   wavefun   :      52054. kBytes
 
     INWAV:  cpu time    0.0000: real time    0.0000
 Broyden mixing: mesh for mixing (old mesh)
   NGX = 47   NGY = 43   NGZ = 47
  (NGX  =192   NGY  =180   NGZ  =192)
  gives a total of  94987 points

 initial charge density was supplied:
 charge density of overlapping atoms calculated
 number of electron    1530.0000000 magnetization 
 keeping initial charge density in first step


--------------------------------------------------------------------------------------------------------


 Maximum index for non-local projection operator          282
 Maximum index for augmentation-charges          774 (set IRDMAX)


--------------------------------------------------------------------------------------------------------


 First call to EWALD:  gamma=   0.141
 Maximum number of real-space cells 3x 3x 3
 Maximum number of reciprocal cells 3x 3x 3

    FEWALD:  cpu time    0.0128: real time    0.0128


--------------------------------------- Iteration      1(   1)  ---------------------------------------


    POTLOK:  cpu time    0.0498: real time    0.0513
    SETDIJ:  cpu time    0.1804: real time    0.1813
     EDDAV:  cpu time   30.9630: real time   31.0414
       DOS:  cpu time    0.0038: real time    0.0038
    --------------------------------------------
      LOOP:  cpu time   31.1970: real time   31.2779

 eigenvalue-minimisations  : 14688
 total energy-change (2. order) : 0.2631480E+05  (-0.7101788E+05)
 number of electron    1530.0000000 magnetization 
 augmentation part     1530.0000000 magnetization 

 Free energy of the ion-electron system (eV)
  ---------------------------------------------------
  alpha Z        PSCENC =      6345.91262876
  Ewald energy   TEWEN  =   -114397.17729077
  -Hartree energ DENC   =    -40419.42440154
  -exchange      EXHF   =         0.00000000
  -V(xc)+E(xc)   XCENC  =      7584.12965928
  PAW double counting   =    124873.75935586  -123768.09407244
  entropy T*S    EENTRO =        -0.03387554
  eigenvalues    EBANDS =      9900.75088554
  atomic energy  EATOM  =    156194.97778894
  Solvation  Ediel_sol  =         0.00000000
  ---------------------------------------------------
  free energy    TOTEN  =     26314.80067809 eV

  energy without entropy =    26314.83455363  energy(sigma->0) =    26314.81761586


--------------------------------------------------------------------------------------------------------




--------------------------------------- Iteration      1(   2)  ---------------------------------------


     EDDAV:  cpu time   31.3517: real time   31.4338
       DOS:  cpu time    0.0034: real time    0.0034
    --------------------------------------------
      LOOP:  cpu time   31.3551: real time   31.4372

 eigenvalue-minimisations  : 14688
 total energy-change (2. order) :-0.2223667E+05  (-0.2121209E+05)
 number of electron    1530.0000000 magnetization 
 augmentation part     1530.0000000 magnetization 

 Free energy of the ion-electron system (eV)
  ---------------------------------------------------
  alpha Z        PSCENC =      6345.91262876
  Ewald energy   TEWEN  =   -114397.17729077
  -Hartree energ DENC   =    -40419.42440154
  -exchange      EXHF   =         0.00000000
  -V(xc)+E(xc)   XCENC  =      7584.12965928
  PAW double counting   =    124873.75935586  -123768.09407244
  entropy T*S    EENTRO =        -0.08516223
  eigenvalues    EBANDS =    -12335.86868044
  atomic energy  EATOM  =    156194.97778894
  Solvation  Ediel_sol  =         0.00000000
  ---------------------------------------------------
  free energy    TOTEN  =      4078.12982541 eV

  energy without entropy =     4078.21498765  energy(sigma->0) =     4078.17240653


--------------------------------------------------------------------------------------------------------




--------------------------------------- Iteration      1(   3)  ---------------------------------------


     EDDAV:  cpu time   34.8436: real time   34.9327
       DOS:  cpu time    0.0080: real time    0.0079
    --------------------------------------------
      LOOP:  cpu time   34.8515: real time   34.9406

 eigenvalue-minimisations  : 17412
 total energy-change (2. order) :-0.5711144E+04  (-0.5477162E+04)
 number of electron    1530.0000000 magnetization 
 augmentation part     1530.0000000 magnetization 

 Free energy of the ion-electron system (eV)
  ---------------------------------------------------
  alpha Z        PSCENC =      6345.91262876
  Ewald energy   TEWEN  =   -114397.17729077
  -Hartree energ DENC   =    -40419.42440154
  -exchange      EXHF   =         0.00000000
  -V(xc)+E(xc)   XCENC  =      7584.12965928
  PAW double counting   =    124873.75935586  -123768.09407244
  entropy T*S    EENTRO =        -0.03991598
  eigenvalues    EBANDS =    -18047.05822290
  atomic energy  EATOM  =    156194.97778894
  Solvation  Ediel_sol  =         0.00000000
  ---------------------------------------------------
  free energy    TOTEN  =     -1633.01447079 eV

  energy without entropy =    -1632.97455481  energy(sigma->0) =    -1632.99451280


--------------------------------------------------------------------------------------------------------




--------------------------------------- Iteration      1(   4)  ---------------------------------------


     EDDAV:  cpu time   39.2331: real time   39.3375
       DOS:  cpu time    0.0032: real time    0.0032
    --------------------------------------------
      LOOP:  cpu time   39.2363: real time   39.3407

 eigenvalue-minimisations  : 20304
 total energy-change (2. order) :-0.6204867E+03  (-0.6166166E+03)
 number of electron    1530.0000000 magnetization 
 augmentation part     1530.0000000 magnetization 

 Free energy of the ion-electron system (eV)
  ---------------------------------------------------
  alpha Z        PSCENC =      6345.91262876
  Ewald energy   TEWEN  =   -114397.17729077
  -Hartree energ DENC   =    -40419.42440154
  -exchange      EXHF   =         0.00000000
  -V(xc)+E(xc)   XCENC  =      7584.12965928
  PAW double counting   =    124873.75935586  -123768.09407244
  entropy T*S    EENTRO =        -0.02923078
  eigenvalues    EBANDS =    -18667.55561358
  atomic energy  EATOM  =    156194.97778894
  Solvation  Ediel_sol  =         0.00000000
  ---------------------------------------------------
  free energy    TOTEN  =     -2253.50117627 eV

  energy without entropy =    -2253.47194549  energy(sigma->0) =    -2253.48656088


--------------------------------------------------------------------------------------------------------




--------------------------------------- Iteration      1(   5)  ---------------------------------------


     EDDAV:  cpu time   43.8302: real time   43.9463
       DOS:  cpu time    0.0031: real time    0.0031
    CHARGE:  cpu time    0.7110: real time    0.7128
    MIXING:  cpu time    0.0024: real time    0.0026
    --------------------------------------------
      LOOP:  cpu time   44.5467: real time   44.6649

 eigenvalue-minimisations  : 23352
 total energy-change (2. order) :-0.5024812E+02  (-0.5016413E+02)
 number of electron    1529.9999907 magnetization 
 augmentation part      317.3092833 magnetization 

 Broyden mixing:
  rms(total) = 0.17817E+02    rms(broyden)= 0.17815E+02
  rms(prec ) = 0.20156E+02
  weight for this iteration     100.00

 Free energy of the ion-electron system (eV)
  ---------------------------------------------------
  alpha Z        PSCENC =      6345.91262876
  Ewald energy   TEWEN  =   -114397.17729077
  -Hartree energ DENC   =    -40419.42440154
  -exchange      EXHF   =         0.00000000
  -V(xc)+E(xc)   XCENC  =      7584.12965928
  PAW double counting   =    124873.75935586  -123768.09407244
  entropy T*S    EENTRO =        -0.03257760
  eigenvalues    EBANDS =    -18717.80038623
  atomic energy  EATOM  =    156194.97778894
  Solvation  Ediel_sol  =         0.00000000
  ---------------------------------------------------
  free energy    TOTEN  =     -2303.74929574 eV

  energy without entropy =    -2303.71671814  energy(sigma->0) =    -2303.73300694


--------------------------------------------------------------------------------------------------------




--------------------------------------- Iteration      1(   6)  ---------------------------------------


    POTLOK:  cpu time    0.0556: real time    0.0661
    SETDIJ:  cpu time    0.1782: real time    0.1788
    EDDIAG:  cpu time    6.9743: real time    6.9916
  RMM-DIIS:  cpu time   14.2357: real time   14.2714
    ORTHCH:  cpu time    3.5985: real time    3.6077
       DOS:  cpu time    0.0036: real time    0.0036
    CHARGE:  cpu time    0.7088: real time    0.7107
    MIXING:  cpu time    0.0013: real time    0.0013
    --------------------------------------------
      LOOP:  cpu time   25.7562: real time   25.8313

 eigenvalue-minimisations  : 21632
 total energy-change (2. order) : 0.5286065E+03  (-0.2960504E+03)
 number of electron    1530.0000041 magnetization 
 augmentation part      325.7263156 magnetization 

 Broyden mixing:
  rms(total) = 0.48572E+01    rms(broyden)= 0.48516E+01
  rms(prec ) = 0.52100E+01
  weight for this iteration     100.00

 eigenvalues of (default mixing * dielectric matrix)
  average eigenvalue GAMMA=   0.9274
  0.9274

 Free energy of the ion-electron system (eV)
  ---------------------------------------------------
  alpha Z        PSCENC =      6345.91262876
  Ewald energy   TEWEN  =   -114397.17729077
  -Hartree energ DENC   =    -39787.23253822
  -exchange      EXHF   =         0.00000000
  -V(xc)+E(xc)   XCENC  =      7634.12102763
  PAW double counting   =    144004.16190959  -143122.69859715
  entropy T*S    EENTRO =        -0.03765089
  eigenvalues    EBANDS =    -18647.17012341
  atomic energy  EATOM  =    156194.97778894
  Solvation  Ediel_sol  =         0.00000000
  ---------------------------------------------------
  free energy    TOTEN  =     -1775.14284552 eV

  energy without entropy =    -1775.10519462  energy(sigma->0) =    -1775.12402007


--------------------------------------------------------------------------------------------------------




--------------------------------------- Iteration      1(   7)  ---------------------------------------


    POTLOK:  cpu time    0.0480: real time    0.0535
    SETDIJ:  cpu time    0.1778: real time    0.1783
    EDDIAG:  cpu time    6.8122: real time    6.8292
  RMM-DIIS:  cpu time   14.3158: real time   14.3515
    ORTHCH:  cpu time    3.6755: real time    3.6847
       DOS:  cpu time    0.0041: real time    0.0041
    CHARGE:  cpu time    0.7032: real time    0.7049
    MIXING:  cpu time    0.0014: real time    0.0014
    --------------------------------------------
      LOOP:  cpu time   25.7380: real time   25.8075

 eigenvalue-minimisations  : 21709
 total energy-change (2. order) : 0.2244320E-01  (-0.2991346E+02)
 number of electron    1530.0000020 magnetization 
 augmentation part      316.4674006 magnetization 

 Broyden mixing:
  rms(total) = 0.40566E+01    rms(broyden)= 0.40564E+01
  rms(prec ) = 0.41486E+01
  weight for this iteration     100.00

 eigenvalues of (default mixing * dielectric matrix)
  average eigenvalue GAMMA=   2.1314
  0.8530  3.4098

 Free energy of the ion-electron system (eV)
  ---------------------------------------------------
  alpha Z        PSCENC =      6345.91262876
  Ewald energy   TEWEN  =   -114397.17729077
  -Hartree energ DENC   =    -39610.34674730
  -exchange      EXHF   =         0.00000000
  -V(xc)+E(xc)   XCENC  =      7610.28780603
  PAW double counting   =    152768.46804183  -151894.74420000
  entropy T*S    EENTRO =        -0.03776426
  eigenvalues    EBANDS =    -18792.46066554
  atomic energy  EATOM  =    156194.97778894
  Solvation  Ediel_sol  =         0.00000000
[...]
      1.98155      1.47346     11.15815        -0.000642      0.000292      0.001464
     12.99569     11.76841      9.89322        -0.000032      0.000058      0.002275
     12.99567     11.76840     12.43935        -0.000078      0.000275     -0.000707
      1.27459      4.41239      1.42305         0.000872      0.000621      0.001115
      5.23372      4.40916      1.44680         0.000246      0.001234     -0.000436
      3.25496      2.94508      0.14634         0.000082      0.001061     -0.000103
      3.26618      2.94125      2.69700         0.000829      0.000504     -0.000476
      4.56901      4.43054      4.69786         0.000283     -0.000395      0.001430
      1.99141      4.41187      4.66160        -0.001325      0.000478     -0.000726
     12.99570      2.94188      3.39792         0.000014     -0.000135      0.000307
     12.99568      2.94518      5.94141        -0.000416      0.000752      0.001207
      1.27451      4.41366      7.92067        -0.000255      0.000169      0.001008
      5.24412      4.46813      7.83033         0.000506      0.000217     -0.001561
      3.25140      2.94425      6.64186        -0.000171      0.000528      0.001508
      3.27548      2.95369      9.18348         0.000007      0.000063     -0.000019
      4.53449      4.41584     11.17792        -0.000766     -0.000402      0.001940
      1.98136      4.41436     11.16152         0.001165     -0.000119      0.000003
     12.99568      2.94289      9.89417        -0.000071     -0.000828      0.001688
     12.99568      2.94136     12.43904        -0.000060     -0.000792     -0.001155
      1.27461      7.35599      1.42305         0.001114     -0.000760      0.000988
      5.23374      7.35918      1.44679         0.000419     -0.000191     -0.000552
      3.25870      5.88419      0.15143        -0.000141      0.000137      0.000369
      3.25762      5.88417      2.69753         0.003143      0.000421     -0.001596
      4.56902      7.33783      4.69785         0.000453      0.000389      0.001291
      1.99141      7.35651      4.66160        -0.001501     -0.000563     -0.000722
     12.99570      5.88419      3.39794         0.000032      0.000331     -0.000414
     12.99569      5.88420      5.93980         0.000049      0.000365      0.002975
      1.27450      7.35474      7.92067         0.000075     -0.000196      0.000991
      5.24409      7.30032      7.83035         0.001086      0.000141     -0.001772
      3.22265      5.88419      6.63873        -0.003513      0.000292      0.002478
      3.27521      5.88420      9.18817         0.000432      0.000189      0.000829
      4.53446      7.35254     11.17793         0.000190      0.000950      0.002133
      1.98137      7.35404     11.16151         0.001092      0.000221      0.000009
     12.99568      5.88419      9.89364        -0.000122     -0.000043      0.000281
     12.99569      5.88420     12.44009        -0.000123      0.000023     -0.000498
      1.27426     10.29711      1.42138        -0.000109     -0.000195      0.001072
      5.22670     10.29889      1.39303         0.000739     -0.000215     -0.001038
      3.25495      8.82329      0.14633         0.000390     -0.000567      0.000118
      3.26619      8.82711      2.69700         0.001121     -0.000402     -0.000465
      4.52992     10.30125      4.67323        -0.000382      0.000214     -0.000654
      1.98255     10.28956      4.67037         0.000441      0.000120      0.000909
     12.99569      8.82651      3.39792         0.000074      0.000061      0.000514
     12.99569      8.82321      5.94141         0.000025     -0.001168      0.001518
      1.27585     10.29574      7.92020        -0.001700      0.000500      0.000492
      5.23412     10.28219      7.89145        -0.000886      0.000348     -0.001323
      3.25140      8.82416      6.64187        -0.000181     -0.000883      0.001117
      3.27549      8.81473      9.18348         0.000075     -0.000450      0.000293
      4.53079     10.29542     11.15295         0.000140     -0.000629     -0.001223
      1.98156     10.29492     11.15815        -0.000724     -0.000123      0.001569
     12.99569      8.82552      9.89418        -0.000043      0.000739      0.001397
     12.99568      8.82703     12.43903        -0.000096      0.000437     -0.000947
      7.76900      1.46955      1.39299        -0.001374     -0.000130     -0.001031
     11.72140      1.47128      1.42139         0.001072      0.000390      0.001033
      9.74708      0.00002      0.14251        -0.000352     -0.000589     -0.000657
      9.74027      0.00000      2.69134        -0.000315     -0.000509     -0.001513
     11.01315      1.47883      4.67036        -0.000684     -0.000438      0.000855
      8.46577      1.46714      4.67327         0.000315     -0.000578     -0.000266
      6.49784      0.00002      3.38009        -0.000027      0.000218      0.005529
      6.49784     11.76824      5.96068        -0.000016     -0.001398      0.000651
      7.76156      1.48626      7.89143         0.001469     -0.000760     -0.001589
     11.71984      1.47267      7.92021         0.001676     -0.000507      0.000398
      9.74346     11.76840      6.64418        -0.000847      0.000023      0.001575
      9.72952      0.00001      9.18476        -0.000349      0.000061     -0.000405
     11.01408      1.47347     11.15811         0.001797      0.000341      0.001709
      8.46491      1.47298     11.15297         0.000596      0.000952     -0.001348
      6.49788      0.00012      9.85469         0.000154     -0.000556      0.002836
      6.49787      0.00005     12.40655         0.000226     -0.000546      0.001204
      7.76195      4.40915      1.44680        -0.000094      0.001254     -0.000411
     11.72107      4.41240      1.42305        -0.001047      0.000974      0.001060
      9.74072      2.94507      0.14632        -0.000119      0.001286      0.000091
      9.72950      2.94125      2.69698        -0.000769      0.000787     -0.000347
     11.00428      4.41187      4.66159         0.001473      0.000850     -0.000857
      8.42669      4.43055      4.69786        -0.000412     -0.000293      0.001275
      6.49783      2.85211      3.32760        -0.000232     -0.002448      0.001571
      6.49789      2.96335      5.89027        -0.000113      0.000419     -0.001438
      7.75156      4.46812      7.83032        -0.000672      0.000460     -0.001449
     11.72118      4.41367      7.92066         0.000256      0.000111      0.001037
      9.74430      2.94425      6.64185         0.000334      0.000636      0.001455
      9.72019      2.95369      9.18349         0.000236      0.000262     -0.000211
     11.01429      4.41433     11.16151        -0.000668      0.000496     -0.000063
      8.46123      4.41583     11.17792         0.000691     -0.000202      0.001827
      6.49788      2.97554      9.86700         0.000270      0.002452      0.002746
      6.49784      2.92032     12.42413         0.000229      0.004912      0.002533
      7.76198      7.35920      1.44680        -0.000659     -0.000303     -0.000615
     11.72108      7.35599      1.42305        -0.001067     -0.000734      0.001005
      9.73698      5.88419      0.15142         0.000337      0.000172      0.000327
      9.73803      5.88420      2.69753        -0.002909      0.000097     -0.001906
     11.00428      7.35651      4.66159         0.001250     -0.000231     -0.000796
      8.42666      7.33784      4.69787        -0.000173      0.000739      0.001243
      6.49784      5.88420      3.52303         0.000078      0.001001     -0.002175
      7.75160      7.30033      7.83034        -0.001044      0.000093     -0.001715
     11.72119      7.35473      7.92068        -0.000033     -0.000074      0.000910
      9.77304      5.88419      6.63870         0.003632      0.000480      0.002996
      9.72049      5.88419      9.18816        -0.000368      0.000290      0.001010
     11.01430      7.35405     11.16151        -0.000891     -0.000133     -0.000049
      8.46124      7.35256     11.17793        -0.000023      0.000577      0.002003
      6.49784      5.88420      9.95834         0.000365      0.001137     -0.004029
      6.49785      5.88418     12.47346         0.000144      0.000352      0.005031
      7.76898     10.29889      1.39302        -0.000675     -0.000276     -0.000933
     11.72141     10.29712      1.42138         0.000294     -0.000257      0.001040
      9.74073      8.82331      0.14632        -0.000204     -0.000670      0.000258
      9.72949      8.82713      2.69700        -0.001070     -0.000463     -0.000400
     11.01314     10.28956      4.67035        -0.000613      0.000142      0.000981
      8.46576     10.30123      4.67325         0.000490      0.000208     -0.000713
      6.49785      8.91624      3.32752         0.000018      0.002805     -0.000284
      6.49778      8.80503      5.89019         0.000035     -0.000020     -0.000006
      7.76157     10.28218      7.89144         0.000918      0.000363     -0.001430
     11.71984     10.29574      7.92022         0.001721      0.000445      0.000379
      9.74430      8.82416      6.64187         0.000280     -0.000903      0.001151
      9.72020      8.81472      9.18350         0.000055     -0.000579     -0.000081
     11.01408     10.29496     11.15813         0.001714     -0.000699      0.001623
      8.46491     10.29545     11.15295        -0.000203     -0.000995     -0.001200
      6.49784      8.79287      9.86701         0.000087     -0.001480      0.002852
      6.49785      8.84818     12.42411         0.000115     -0.003776      0.002969
 -----------------------------------------------------------------------------------
    total drift:                               -0.005310     -0.006500      0.186079


--------------------------------------------------------------------------------------------------------



  FREE ENERGIE OF THE ION-ELECTRON SYSTEM (eV)
  ---------------------------------------------------
  free  energy   TOTEN  =     -1785.67577674 eV

  energy  without entropy=    -1785.61483245  energy(sigma->0) =    -1785.64530460
 


--------------------------------------------------------------------------------------------------------


    POTLOK:  cpu time    0.2226: real time    0.2233


--------------------------------------------------------------------------------------------------------


     LOOP+:  cpu time  937.1536: real time  939.6968
    4ORBIT:  cpu time    0.0000: real time    0.0000



 total charge

# of ion       s       p       d       tot
------------------------------------------
    1        2.226   6.308   1.739  10.273
    2        2.226   6.308   1.739  10.272
    3        2.225   6.307   1.739  10.271
    4        2.225   6.308   1.741  10.275
    5        2.225   6.307   1.739  10.271
    6        2.225   6.307   1.738  10.271
    7        2.225   6.308   1.739  10.272
    8        2.225   6.307   1.739  10.271
    9        2.226   6.308   1.740  10.274
   10        2.226   6.308   1.740  10.274
   11        2.224   6.305   1.736  10.266
   12        2.225   6.306   1.739  10.269
   13        2.226   6.309   1.741  10.275
   14        2.226   6.308   1.740  10.274
   15        2.225   6.308   1.739  10.272
   16        2.225   6.307   1.739  10.271
   17        2.226   6.308   1.740  10.274
   18        2.225   6.308   1.740  10.273
   19        2.224   6.305   1.736  10.266
   20        2.226   6.308   1.739  10.273
   21        2.226   6.309   1.741  10.275
   22        2.226   6.309   1.740  10.274
   23        2.225   6.308   1.739  10.272
   24        2.225   6.308   1.740  10.272
   25        2.226   6.308   1.739  10.273
   26        2.226   6.308   1.740  10.274
   27        2.225   6.307   1.739  10.271
   28        2.225   6.306   1.739  10.269
   29        2.225   6.307   1.739  10.271
   30        2.226   6.308   1.740  10.274
   31        2.225   6.308   1.739  10.272
   32        2.225   6.307   1.739  10.271
   33        2.226   6.308   1.739  10.273
   34        2.225   6.308   1.746  10.279
   35        2.227   6.315   1.793  10.336
   36        2.225   6.308   1.741  10.275
   37        2.225   6.307   1.739  10.271
   38        2.228   6.313   1.756  10.297
   39        2.224   6.307   1.760  10.291
   40        2.225   6.307   1.739  10.271
   41        2.226   6.308   1.740  10.274
   42        2.231   6.319   1.771  10.321
   43        2.245   6.300   1.899  10.445
   44        2.225   6.306   1.739  10.269
   45        2.226   6.309   1.741  10.275
   46        2.223   6.300   1.730  10.253
   47        2.230   6.315   1.763  10.308
   48        2.225   6.307   1.739  10.271
   49        2.226   6.308   1.740  10.274
   50        2.224   6.300   1.747  10.272
   51        2.245   6.300   1.899  10.445
   52        2.226   6.308   1.739  10.273
   53        2.226   6.309   1.741  10.275
   54        2.247   6.312   1.897  10.456
   55        2.230   6.315   1.763  10.308
   56        2.225   6.308   1.740  10.272
   57        2.226   6.308   1.739  10.273
   58        2.231   6.319   1.771  10.321
   59        2.227   6.315   1.793  10.336
   60        2.225   6.306   1.739  10.269
   61        2.225   6.307   1.739  10.271
   62        2.223   6.300   1.729  10.253
   63        2.224   6.307   1.760  10.291
   64        2.225   6.307   1.739  10.271
   65        1.570   3.486   0.000   5.056
   66        1.570   3.485   0.000   5.055
   67        1.569   3.485   0.000   5.054
   68        1.569   3.484   0.000   5.054
   69        1.569   3.486   0.000   5.055
   70        1.570   3.485   0.000   5.054
   71        1.570   3.484   0.000   5.054
   72        1.570   3.484   0.000   5.054
   73        1.569   3.485   0.000   5.054
   74        1.570   3.483   0.000   5.053
   75        1.570   3.485   0.000   5.054
   76        1.570   3.485   0.000   5.054
   77        1.569   3.485   0.000   5.054
   78        1.570   3.484   0.000   5.054
   79        1.570   3.485   0.000   5.055
   80        1.569   3.485   0.000   5.054
   81        1.570   3.485   0.000   5.054
   82        1.569   3.484   0.000   5.053
   83        1.569   3.484   0.000   5.054
   84        1.569   3.484   0.000   5.053
   85        1.567   3.479   0.000   5.046
   86        1.569   3.483   0.000   5.053
   87        1.570   3.484   0.000   5.054
   88        1.570   3.484   0.000   5.054
   89        1.569   3.486   0.000   5.055
   90        1.568   3.481   0.000   5.049
   91        1.570   3.486   0.000   5.056
   92        1.569   3.483   0.000   5.052
   93        1.569   3.485   0.000   5.054
   94        1.570   3.484   0.000   5.054
   95        1.570   3.485   0.000   5.055
   96        1.569   3.484   0.000   5.054
   97        1.569   3.485   0.000   5.054
   98        1.569   3.484   0.000   5.053
   99        1.570   3.485   0.000   5.054
  100        1.570   3.485   0.000   5.055
  101        1.567   3.479   0.000   5.046
  102        1.569   3.483   0.000   5.053
  103        1.570   3.485   0.000   5.055
  104        1.570   3.484   0.000   5.053
  105        1.569   3.486   0.000   5.056
  106        1.568   3.481   0.000   5.049
  107        1.570   3.489   0.000   5.059
  108        1.569   3.484   0.000   5.053
  109        1.569   3.485   0.000   5.054
  110        1.570   3.484   0.000   5.054
  111        1.570   3.485   0.000   5.055
  112        1.570   3.485   0.000   5.054
  113        1.570   3.486   0.000   5.056
  114        1.570   3.485   0.000   5.055
  115        1.569   3.484   0.000   5.054
  116        1.569   3.484   0.000   5.053
  117        1.569   3.486   0.000   5.055
  118        1.570   3.485   0.000   5.054
  119        1.570   3.484   0.000   5.054
  120        1.570   3.484   0.000   5.054
  121        1.569   3.485   0.000   5.054
  122        1.570   3.483   0.000   5.053
  123        1.570   3.486   0.000   5.056
  124        1.569   3.483   0.000   5.052
  125        1.569   3.485   0.000   5.054
  126        1.570   3.484   0.000   5.054
  127        1.570   3.485   0.000   5.055
  128        1.569   3.484   0.000   5.054
  129        1.570   3.485   0.000   5.055
  130        1.570   3.486   0.000   5.056
  131        1.569   3.485   0.000   5.054
  132        1.569   3.484   0.000   5.054
  133        1.570   3.485   0.000   5.054
  134        1.569   3.486   0.000   5.055
  135        1.570   3.484   0.000   5.055
  136        1.574   3.508   0.000   5.082
  137        1.570   3.483   0.000   5.053
  138        1.569   3.485   0.000   5.054
  139        1.570   3.485   0.000   5.054
  140        1.570   3.485   0.000   5.054
  141        1.570   3.484   0.000   5.054
  142        1.569   3.485   0.000   5.054
  143        1.572   3.505   0.000   5.077
  144        1.569   3.481   0.000   5.051
  145        1.569   3.484   0.000   5.053
  146        1.569   3.485   0.000   5.054
  147        1.569   3.484   0.000   5.054
  148        1.569   3.484   0.000   5.053
  149        1.569   3.483   0.000   5.053
  150        1.567   3.479   0.000   5.046
  151        1.578   3.505   0.000   5.082
  152        1.570   3.487   0.000   5.057
  153        1.568   3.481   0.000   5.049
  154        1.569   3.486   0.000   5.056
  155        1.570   3.486   0.000   5.056
  156        1.569   3.483   0.000   5.052
  157        1.570   3.484   0.000   5.054
  158        1.569   3.485   0.000   5.054
  159        1.568   3.475   0.000   5.043
  160        1.573   3.511   0.000   5.084
  161        1.569   3.484   0.000   5.053
  162        1.569   3.485   0.000   5.054
  163        1.570   3.485   0.000   5.054
  164        1.570   3.485   0.000   5.055
  165        1.569   3.483   0.000   5.053
  166        1.567   3.479   0.000   5.046
  167        1.569   3.491   0.000   5.059
  168        1.568   3.481   0.000   5.049
  169        1.569   3.486   0.000   5.055
  170        1.570   3.489   0.000   5.059
  171        1.569   3.484   0.000   5.053
  172        1.570   3.484   0.000   5.054
  173        1.569   3.485   0.000   5.054
  174        1.575   3.525   0.000   5.100
  175        1.569   3.487   0.000   5.055
  176        1.570   3.485   0.000   5.055
  177        1.570   3.486   0.000   5.056
  178        1.569   3.484   0.000   5.054
  179        1.569   3.484   0.000   5.053
  180        1.570   3.485   0.000   5.054
  181        1.569   3.486   0.000   5.055
  182        1.578   3.505   0.000   5.083
  183        1.570   3.487   0.000   5.057
  184        1.570   3.483   0.000   5.053
  185        1.569   3.485   0.000   5.054
  186        1.570   3.486   0.000   5.056
  187        1.569   3.483   0.000   5.052
  188        1.570   3.484   0.000   5.054
  189        1.569   3.485   0.000   5.054
  190        1.568   3.475   0.000   5.043
  191        1.573   3.511   0.000   5.084
--------------------------------------------------
tot        341.848 846.394 112.0661300.309
 

 total amount of memory used by VASP MPI-rank0   106096. kBytes
=======================================================================

   base      :      30000. kBytes
   nonlr-proj:      14729. kBytes
   fftplans  :       3524. kBytes
   grid      :       5634. kBytes
   one-center:        155. kBytes
   wavefun   :      52054. kBytes
 
  
  
 General timing and accounting informations for this job:
 ========================================================
  
                  Total CPU time used (sec):      982.737
                            User time (sec):      976.827
                          System time (sec):        5.909
                         Elapsed time (sec):      986.267
  
                   Maximum memory used (kb):      346060.
                   Average memory used (kb):          N/A
  
                          Minor page faults:        80360
                          Major page faults:            0
                 Voluntary context switches:         8027
