 **********************************************************************
                          MRCC program system
 **********************************************************************
 
                              Written by
 Mihaly Kallay, Peter R. Nagy, David Mester, Zoltan Rolik, Gyula Samu,
   Jozsef Csontos, Jozsef Csoka, P. Bernat Szabo, Laszlo Gyevi-Nagy,
    Bence Hegely, Istvan Ladjanszki, Lorant Szegedy, Bence Ladoczki,
       Klara Petrov, Mate Farkas, Pal D. Mezei, and Adam Ganyecz
 
        Department of Physical Chemistry and Materials Science
            Budapest University of Technology and Economics
                  Budapest P.O.Box 91, H-1521 Hungary
 
                              www.mrcc.hu
 
                    Release date: February 22, 2020

 ************************ 2021-12-01 19:40:07 *************************
 Executing minp...

 Reading input from MINP...
 
 Input file:
 
calc=SCF
dft=PBE
scftype=rks
verbosity=3
mem=490GB
symm=off
unit=angs
scfiguess=small
scfmaxit=1000

charge=-82
basis=special
def2-QZVPP
def2-QZVPP
def2-QZVPP
def2-QZVPP
def2-QZVPP
def2-QZVPP
def2-QZVPP
def2-QZVPP
def2-QZVPP
def2-QZVPP
def2-QZVPP
def2-QZVPP
def2-QZVPP
def2-QZVPP
def2-QZVPP
def2-QZVPP
def2-QZVPP
def2-QZVPP
def2-QZVPP
def2-QZVPP
def2-QZVPP
def2-QZVPP
def2-QZVPP
def2-QZVPP
def2-QZVPP
def2-QZVPP
def2-QZVPP
def2-QZVPP
def2-QZVPP
def2-QZVPP
def2-QZVPP
def2-QZVPP
def2-QZVPP
def2-QZVPP
def2-QZVPP
def2-QZVPP
def2-QZVPP
def2-QZVPP
def2-QZVPP
def2-QZVPP
def2-QZVPP
def2-QZVPP
def2-QZVPP
def2-QZVPP
def2-QZVPP
def2-QZVPP
def2-QZVPP
def2-QZVPP
def2-QZVPP
def2-QZVPP
def2-QZVPP
def2-QZVPP
def2-QZVPP
def2-QZVPP
def2-QZVPP
def2-QZVPP
def2-QZVPP
def2-QZVPP
def2-QZVPP
def2-QZVPP
def2-QZVPP
def2-QZVPP
def2-QZVPP
def2-QZVPP
def2-QZVPP
def2-QZVPP
def2-QZVPP
def2-QZVPP
def2-QZVPP
def2-QZVPP
def2-QZVPP
def2-QZVPP
def2-QZVPP
def2-QZVPP
def2-QZVPP
def2-QZVPP
def2-QZVPP
def2-QZVPP
def2-QZVPP
def2-QZVPP
def2-QZVPP
def2-QZVPP
def2-QZVPP
def2-QZVPP
def2-QZVPP
def2-QZVPP
def2-QZVPP
def2-QZVPP
def2-QZVPP
def2-QZVPP
def2-QZVPP
def2-QZVPP
def2-QZVPP
def2-QZVPP
def2-QZVPP
def2-QZVPP
def2-QZVPP
def2-QZVPP
def2-QZVPP
def2-QZVPP
def2-QZVPP
def2-QZVPP
def2-QZVPP
def2-QZVPP
def2-QZVPP
def2-QZVPP
def2-QZVPP
def2-QZVPP
def2-QZVPP
def2-QZVPP
def2-QZVPP
def2-QZVPP
def2-QZVPP
def2-QZVPP
def2-QZVPP
def2-QZVPP
def2-QZVPP
nothing
nothing
nothing
nothing
nothing
nothing
nothing
nothing
nothing
nothing
nothing
nothing
nothing
nothing
nothing
nothing
nothing
nothing
nothing
nothing
nothing
nothing
nothing
nothing
nothing
nothing
nothing
nothing
nothing
nothing
nothing
nothing
nothing
nothing
nothing
nothing
nothing
nothing
nothing
nothing
nothing
nothing
nothing
nothing
nothing
nothing
nothing
nothing
nothing
nothing
nothing
nothing
nothing
nothing
nothing
nothing
nothing
nothing
nothing
nothing
nothing
nothing
nothing
nothing
nothing
nothing
nothing
nothing
nothing
nothing
nothing
nothing
nothing
nothing
nothing
nothing
nothing
nothing
nothing
nothing
nothing
nothing
nothing
nothing
nothing
nothing
nothing
nothing
nothing
nothing
nothing
nothing
nothing
nothing
nothing
nothing
nothing
nothing
nothing
nothing
nothing
nothing
nothing
nothing
nothing
nothing
nothing
nothing
nothing
nothing
nothing
nothing
nothing
nothing
nothing
nothing
nothing
nothing
nothing
nothing
nothing
nothing
nothing
nothing
nothing
nothing
nothing
nothing
nothing
nothing
nothing
nothing
nothing
nothing
nothing
nothing
nothing
nothing
nothing
nothing
nothing
nothing
nothing
nothing
nothing
nothing
nothing
nothing
nothing
nothing
nothing
nothing
nothing
nothing
nothing
nothing
nothing
nothing
nothing
nothing
nothing
nothing
nothing
nothing
nothing
nothing
nothing
nothing
nothing
nothing
nothing
nothing
nothing
nothing
nothing
nothing
nothing
nothing
nothing
nothing
nothing
nothing
nothing
nothing
nothing
nothing
nothing
nothing
nothing
nothing
nothing
nothing
nothing
nothing
nothing
nothing
nothing
nothing
nothing
nothing
nothing
nothing
nothing
nothing
nothing
nothing
nothing
nothing
nothing
nothing
nothing
nothing
nothing
nothing
nothing
nothing
nothing
nothing
nothing
nothing
nothing
nothing
nothing
nothing
nothing
nothing
nothing
nothing
nothing
nothing
nothing
nothing
nothing
nothing
nothing
nothing
nothing
nothing
nothing
nothing
nothing
nothing
nothing
nothing
nothing
nothing
nothing
nothing
nothing
nothing
nothing
nothing
nothing
nothing
nothing
nothing
nothing
nothing
nothing
nothing
nothing
nothing
nothing
nothing
nothing
nothing
nothing
nothing
nothing
nothing
nothing
nothing
nothing
nothing
nothing
nothing
nothing
nothing
nothing
nothing
nothing
nothing
nothing
nothing
nothing
nothing
nothing
nothing
nothing
nothing
nothing
nothing
nothing
nothing
nothing
nothing
nothing
nothing
nothing
nothing
nothing
nothing
nothing
nothing
nothing
nothing
nothing
nothing
nothing
nothing
nothing
nothing
nothing
nothing
nothing
nothing
nothing
nothing
nothing
nothing
nothing
nothing
nothing
nothing
nothing
nothing
nothing
nothing
nothing
nothing
nothing
nothing
nothing
nothing
nothing
nothing
nothing
nothing
nothing
nothing
nothing
nothing
nothing
nothing
nothing
nothing
nothing
nothing
nothing
nothing
nothing
nothing
nothing
nothing
nothing
nothing
nothing
nothing
nothing
nothing
nothing
nothing
nothing
nothing
nothing
nothing
nothing
nothing
nothing
nothing
nothing
nothing
nothing
nothing
nothing
nothing
nothing
nothing
nothing
nothing
nothing
nothing
nothing
nothing
nothing
nothing
nothing
nothing
nothing
nothing
nothing
nothing
nothing
nothing
nothing
nothing
nothing
nothing
nothing
nothing
nothing
nothing
nothing
nothing
nothing
nothing
nothing
nothing
nothing
nothing
nothing
nothing
nothing
nothing
nothing
nothing
nothing
nothing
nothing
nothing
nothing
nothing
nothing
nothing
nothing
nothing
nothing
nothing
nothing
nothing
nothing
nothing
nothing
nothing
nothing
nothing
nothing
nothing
nothing
nothing
nothing
nothing
nothing
nothing
nothing
nothing
nothing
nothing
nothing
nothing
nothing
nothing
nothing
nothing
nothing
nothing
nothing
nothing
nothing
nothing
nothing
nothing
nothing
nothing
nothing
nothing
nothing
nothing
nothing
nothing
nothing
nothing
nothing
nothing
nothing
nothing
nothing
nothing
nothing
nothing
nothing
nothing
nothing
nothing
nothing
nothing
nothing
nothing
nothing
nothing
nothing
nothing
nothing
nothing
nothing
nothing
nothing
nothing
nothing
nothing

basis_sm=special
STO-3G
STO-3G
STO-3G
STO-3G
STO-3G
STO-3G
STO-3G
STO-3G
STO-3G
STO-3G
STO-3G
STO-3G
STO-3G
STO-3G
STO-3G
STO-3G
STO-3G
STO-3G
STO-3G
STO-3G
STO-3G
STO-3G
STO-3G
STO-3G
STO-3G
STO-3G
STO-3G
STO-3G
STO-3G
STO-3G
STO-3G
STO-3G
STO-3G
STO-3G
STO-3G
STO-3G
STO-3G
STO-3G
STO-3G
STO-3G
STO-3G
STO-3G
STO-3G
STO-3G
STO-3G
STO-3G
STO-3G
STO-3G
STO-3G
STO-3G
STO-3G
STO-3G
STO-3G
STO-3G
STO-3G
STO-3G
STO-3G
STO-3G
STO-3G
STO-3G
STO-3G
STO-3G
STO-3G
STO-3G
STO-3G
STO-3G
STO-3G
STO-3G
STO-3G
STO-3G
STO-3G
STO-3G
STO-3G
STO-3G
STO-3G
STO-3G
STO-3G
STO-3G
STO-3G
STO-3G
STO-3G
STO-3G
STO-3G
STO-3G
STO-3G
STO-3G
STO-3G
STO-3G
STO-3G
STO-3G
STO-3G
STO-3G
STO-3G
STO-3G
STO-3G
STO-3G
STO-3G
STO-3G
STO-3G
STO-3G
STO-3G
STO-3G
STO-3G
STO-3G
STO-3G
STO-3G
STO-3G
STO-3G
STO-3G
STO-3G
STO-3G
STO-3G
STO-3G
STO-3G
STO-3G
STO-3G
STO-3G
nothing
nothing
nothing
nothing
nothing
nothing
nothing
nothing
nothing
nothing
nothing
nothing
nothing
nothing
nothing
nothing
nothing
nothing
nothing
nothing
nothing
nothing
nothing
nothing
nothing
nothing
nothing
nothing
nothing
nothing
nothing
nothing
nothing
nothing
nothing
nothing
nothing
nothing
nothing
nothing
nothing
nothing
nothing
nothing
nothing
nothing
nothing
nothing
nothing
nothing
nothing
nothing
nothing
nothing
nothing
nothing
nothing
nothing
nothing
nothing
nothing
nothing
nothing
nothing
nothing
nothing
nothing
nothing
nothing
nothing
nothing
nothing
nothing
nothing
nothing
nothing
nothing
nothing
nothing
nothing
nothing
nothing
nothing
nothing
nothing
nothing
nothing
nothing
nothing
nothing
nothing
nothing
nothing
nothing
nothing
nothing
nothing
nothing
nothing
nothing
nothing
nothing
nothing
nothing
nothing
nothing
nothing
nothing
nothing
nothing
nothing
nothing
nothing
nothing
nothing
nothing
nothing
nothing
nothing
nothing
nothing
nothing
nothing
nothing
nothing
nothing
nothing
nothing
nothing
nothing
nothing
nothing
nothing
nothing
nothing
nothing
nothing
nothing
nothing
nothing
nothing
nothing
nothing
nothing
nothing
nothing
nothing
nothing
nothing
nothing
nothing
nothing
nothing
nothing
nothing
nothing
nothing
nothing
nothing
nothing
nothing
nothing
nothing
nothing
nothing
nothing
nothing
nothing
nothing
nothing
nothing
nothing
nothing
nothing
nothing
nothing
nothing
nothing
nothing
nothing
nothing
nothing
nothing
nothing
nothing
nothing
nothing
nothing
nothing
nothing
nothing
nothing
nothing
nothing
nothing
nothing
nothing
nothing
nothing
nothing
nothing
nothing
nothing
nothing
nothing
nothing
nothing
nothing
nothing
nothing
nothing
nothing
nothing
nothing
nothing
nothing
nothing
nothing
nothing
nothing
nothing
nothing
nothing
nothing
nothing
nothing
nothing
nothing
nothing
nothing
nothing
nothing
nothing
nothing
nothing
nothing
nothing
nothing
nothing
nothing
nothing
nothing
nothing
nothing
nothing
nothing
nothing
nothing
nothing
nothing
nothing
nothing
nothing
nothing
nothing
nothing
nothing
nothing
nothing
nothing
nothing
nothing
nothing
nothing
nothing
nothing
nothing
nothing
nothing
nothing
nothing
nothing
nothing
nothing
nothing
nothing
nothing
nothing
nothing
nothing
nothing
nothing
nothing
nothing
nothing
nothing
nothing
nothing
nothing
nothing
nothing
nothing
nothing
nothing
nothing
nothing
nothing
nothing
nothing
nothing
nothing
nothing
nothing
nothing
nothing
nothing
nothing
nothing
nothing
nothing
nothing
nothing
nothing
nothing
nothing
nothing
nothing
nothing
nothing
nothing
nothing
nothing
nothing
nothing
nothing
nothing
nothing
nothing
nothing
nothing
nothing
nothing
nothing
nothing
nothing
nothing
nothing
nothing
nothing
nothing
nothing
nothing
nothing
nothing
nothing
nothing
nothing
nothing
nothing
nothing
nothing
nothing
nothing
nothing
nothing
nothing
nothing
nothing
nothing
nothing
nothing
nothing
nothing
nothing
nothing
nothing
nothing
nothing
nothing
nothing
nothing
nothing
nothing
nothing
nothing
nothing
nothing
nothing
nothing
nothing
nothing
nothing
nothing
nothing
nothing
nothing
nothing
nothing
nothing
nothing
nothing
nothing
nothing
nothing
nothing
nothing
nothing
nothing
nothing
nothing
nothing
nothing
nothing
nothing
nothing
nothing
nothing
nothing
nothing
nothing
nothing
nothing
nothing
nothing
nothing
nothing
nothing
nothing
nothing
nothing
nothing
nothing
nothing
nothing
nothing
nothing
nothing
nothing
nothing
nothing
nothing
nothing
nothing
nothing
nothing
nothing
nothing
nothing
nothing
nothing
nothing
nothing
nothing
nothing
nothing
nothing
nothing
nothing
nothing
nothing
nothing
nothing
nothing
nothing
nothing
nothing
nothing
nothing
nothing
nothing
nothing
nothing
nothing
nothing
nothing
nothing
nothing
nothing
nothing
nothing
nothing
nothing
nothing
nothing
nothing
nothing
nothing
nothing
nothing
nothing
nothing
nothing
nothing
nothing
nothing
nothing
nothing
nothing
nothing
nothing
nothing
nothing
nothing
nothing
nothing
nothing
nothing
nothing
nothing
nothing

dfbasis_scf=special
def2-QZVPP-RI-JK
def2-QZVPP-RI-JK
def2-QZVPP-RI-JK
def2-QZVPP-RI-JK
def2-QZVPP-RI-JK
def2-QZVPP-RI-JK
def2-QZVPP-RI-JK
def2-QZVPP-RI-JK
def2-QZVPP-RI-JK
def2-QZVPP-RI-JK
def2-QZVPP-RI-JK
def2-QZVPP-RI-JK
def2-QZVPP-RI-JK
def2-QZVPP-RI-JK
def2-QZVPP-RI-JK
def2-QZVPP-RI-JK
def2-QZVPP-RI-JK
def2-QZVPP-RI-JK
def2-QZVPP-RI-JK
def2-QZVPP-RI-JK
def2-QZVPP-RI-JK
def2-QZVPP-RI-JK
def2-QZVPP-RI-JK
def2-QZVPP-RI-JK
def2-QZVPP-RI-JK
def2-QZVPP-RI-JK
def2-QZVPP-RI-JK
def2-QZVPP-RI-JK
def2-QZVPP-RI-JK
def2-QZVPP-RI-JK
def2-QZVPP-RI-JK
def2-QZVPP-RI-JK
def2-QZVPP-RI-JK
def2-QZVPP-RI-JK
def2-QZVPP-RI-JK
def2-QZVPP-RI-JK
def2-QZVPP-RI-JK
def2-QZVPP-RI-JK
def2-QZVPP-RI-JK
def2-QZVPP-RI-JK
def2-QZVPP-RI-JK
def2-QZVPP-RI-JK
def2-QZVPP-RI-JK
def2-QZVPP-RI-JK
def2-QZVPP-RI-JK
def2-QZVPP-RI-JK
def2-QZVPP-RI-JK
def2-QZVPP-RI-JK
def2-QZVPP-RI-JK
def2-QZVPP-RI-JK
def2-QZVPP-RI-JK
def2-QZVPP-RI-JK
def2-QZVPP-RI-JK
def2-QZVPP-RI-JK
def2-QZVPP-RI-JK
def2-QZVPP-RI-JK
def2-QZVPP-RI-JK
def2-QZVPP-RI-JK
def2-QZVPP-RI-JK
def2-QZVPP-RI-JK
def2-QZVPP-RI-JK
def2-QZVPP-RI-JK
def2-QZVPP-RI-JK
def2-QZVPP-RI-JK
def2-QZVPP-RI-JK
def2-QZVPP-RI-JK
def2-QZVPP-RI-JK
def2-QZVPP-RI-JK
def2-QZVPP-RI-JK
def2-QZVPP-RI-JK
def2-QZVPP-RI-JK
def2-QZVPP-RI-JK
def2-QZVPP-RI-JK
def2-QZVPP-RI-JK
def2-QZVPP-RI-JK
def2-QZVPP-RI-JK
def2-QZVPP-RI-JK
def2-QZVPP-RI-JK
def2-QZVPP-RI-JK
def2-QZVPP-RI-JK
def2-QZVPP-RI-JK
def2-QZVPP-RI-JK
def2-QZVPP-RI-JK
def2-QZVPP-RI-JK
def2-QZVPP-RI-JK
def2-QZVPP-RI-JK
def2-QZVPP-RI-JK
def2-QZVPP-RI-JK
def2-QZVPP-RI-JK
def2-QZVPP-RI-JK
def2-QZVPP-RI-JK
def2-QZVPP-RI-JK
def2-QZVPP-RI-JK
def2-QZVPP-RI-JK
def2-QZVPP-RI-JK
def2-QZVPP-RI-JK
def2-QZVPP-RI-JK
def2-QZVPP-RI-JK
def2-QZVPP-RI-JK
def2-QZVPP-RI-JK
def2-QZVPP-RI-JK
def2-QZVPP-RI-JK
def2-QZVPP-RI-JK
def2-QZVPP-RI-JK
def2-QZVPP-RI-JK
def2-QZVPP-RI-JK
def2-QZVPP-RI-JK
def2-QZVPP-RI-JK
def2-QZVPP-RI-JK
def2-QZVPP-RI-JK
def2-QZVPP-RI-JK
def2-QZVPP-RI-JK
def2-QZVPP-RI-JK
def2-QZVPP-RI-JK
def2-QZVPP-RI-JK
def2-QZVPP-RI-JK
def2-QZVPP-RI-JK
nothing
nothing
nothing
nothing
nothing
nothing
nothing
nothing
nothing
nothing
nothing
nothing
nothing
nothing
nothing
nothing
nothing
nothing
nothing
nothing
nothing
nothing
nothing
nothing
nothing
nothing
nothing
nothing
nothing
nothing
nothing
nothing
nothing
nothing
nothing
nothing
nothing
nothing
nothing
nothing
nothing
nothing
nothing
nothing
nothing
nothing
nothing
nothing
nothing
nothing
nothing
nothing
nothing
nothing
nothing
nothing
nothing
nothing
nothing
nothing
nothing
nothing
nothing
nothing
nothing
nothing
nothing
nothing
nothing
nothing
nothing
nothing
nothing
nothing
nothing
nothing
nothing
nothing
nothing
nothing
nothing
nothing
nothing
nothing
nothing
nothing
nothing
nothing
nothing
nothing
nothing
nothing
nothing
nothing
nothing
nothing
nothing
nothing
nothing
nothing
nothing
nothing
nothing
nothing
nothing
nothing
nothing
nothing
nothing
nothing
nothing
nothing
nothing
nothing
nothing
nothing
nothing
nothing
nothing
nothing
nothing
nothing
nothing
nothing
nothing
nothing
nothing
nothing
nothing
nothing
nothing
nothing
nothing
nothing
nothing
nothing
nothing
nothing
nothing
nothing
nothing
nothing
nothing
nothing
nothing
nothing
nothing
nothing
nothing
nothing
nothing
nothing
nothing
nothing
nothing
nothing
nothing
nothing
nothing
nothing
nothing
nothing
nothing
nothing
nothing
nothing
nothing
nothing
nothing
nothing
nothing
nothing
nothing
nothing
nothing
nothing
nothing
nothing
nothing
nothing
nothing
nothing
nothing
nothing
nothing
nothing
nothing
nothing
nothing
nothing
nothing
nothing
nothing
nothing
nothing
nothing
nothing
nothing
nothing
nothing
nothing
nothing
nothing
nothing
nothing
nothing
nothing
nothing
nothing
nothing
nothing
nothing
nothing
nothing
nothing
nothing
nothing
nothing
nothing
nothing
nothing
nothing
nothing
nothing
nothing
nothing
nothing
nothing
nothing
nothing
nothing
nothing
nothing
nothing
nothing
nothing
nothing
nothing
nothing
nothing
nothing
nothing
nothing
nothing
nothing
nothing
nothing
nothing
nothing
nothing
nothing
nothing
nothing
nothing
nothing
nothing
nothing
nothing
nothing
nothing
nothing
nothing
nothing
nothing
nothing
nothing
nothing
nothing
nothing
nothing
nothing
nothing
nothing
nothing
nothing
nothing
nothing
nothing
nothing
nothing
nothing
nothing
nothing
nothing
nothing
nothing
nothing
nothing
nothing
nothing
nothing
nothing
nothing
nothing
nothing
nothing
nothing
nothing
nothing
nothing
nothing
nothing
nothing
nothing
nothing
nothing
nothing
nothing
nothing
nothing
nothing
nothing
nothing
nothing
nothing
nothing
nothing
nothing
nothing
nothing
nothing
nothing
nothing
nothing
nothing
nothing
nothing
nothing
nothing
nothing
nothing
nothing
nothing
nothing
nothing
nothing
nothing
nothing
nothing
nothing
nothing
nothing
nothing
nothing
nothing
nothing
nothing
nothing
nothing
nothing
nothing
nothing
nothing
nothing
nothing
nothing
nothing
nothing
nothing
nothing
nothing
nothing
nothing
nothing
nothing
nothing
nothing
nothing
nothing
nothing
nothing
nothing
nothing
nothing
nothing
nothing
nothing
nothing
nothing
nothing
nothing
nothing
nothing
nothing
nothing
nothing
nothing
nothing
nothing
nothing
nothing
nothing
nothing
nothing
nothing
nothing
nothing
nothing
nothing
nothing
nothing
nothing
nothing
nothing
nothing
nothing
nothing
nothing
nothing
nothing
nothing
nothing
nothing
nothing
nothing
nothing
nothing
nothing
nothing
nothing
nothing
nothing
nothing
nothing
nothing
nothing
nothing
nothing
nothing
nothing
nothing
nothing
nothing
nothing
nothing
nothing
nothing
nothing
nothing
nothing
nothing
nothing
nothing
nothing
nothing
nothing
nothing
nothing
nothing
nothing
nothing
nothing
nothing
nothing
nothing
nothing
nothing
nothing
nothing
nothing
nothing
nothing
nothing
nothing
nothing
nothing
nothing
nothing
nothing
nothing
nothing
nothing
nothing
nothing
nothing
nothing
nothing
nothing
nothing
nothing
nothing
nothing
nothing
nothing
nothing
nothing
nothing
nothing
nothing
nothing
nothing
nothing
nothing
nothing
nothing
nothing
nothing
nothing
nothing
nothing

ecp=special
none
none
none
none
none
none
none
none
none
none
none
none
none
none
none
none
none
none
none
none
none
none
none
none
none
none
none
none
none
none
none
none
none
none
none
none
none
none
none
none
none
none
none
none
none
none
none
none
none
none
none
none
none
none
none
none
none
none
none
none
none
none
none
none
none
none
none
none
none
none
none
none
none
none
none
none
none
none
none
none
none
none
none
none
none
none
none
none
none
none
none
none
none
none
none
none
none
none
none
none
none
none
none
none
none
none
none
none
none
none
none
none
none
none
none
none
none
ECP-12
ECP-12
ECP-12
ECP-12
ECP-12
ECP-12
ECP-12
ECP-12
ECP-12
ECP-12
ECP-12
ECP-12
ECP-12
ECP-12
ECP-12
ECP-12
ECP-12
ECP-12
ECP-12
ECP-12
ECP-12
ECP-12
ECP-12
ECP-12
ECP-12
ECP-12
ECP-12
ECP-12
ECP-12
ECP-12
ECP-12
ECP-12
ECP-12
ECP-12
ECP-12
ECP-12
ECP-12
ECP-12
ECP-12
ECP-12
ECP-12
ECP-12
ECP-12
ECP-12
ECP-12
ECP-12
ECP-12
ECP-12
ECP-12
ECP-12
ECP-12
ECP-12
ECP-12
ECP-12
ECP-12
ECP-12
ECP-12
ECP-12
ECP-12
ECP-12
ECP-12
ECP-12
ECP-12
ECP-12
ECP-12
ECP-12
ECP-12
ECP-12
ECP-12
ECP-12
ECP-12
ECP-12
ECP-12
ECP-12
ECP-12
ECP-12
ECP-12
ECP-12
ECP-12
ECP-12
ECP-12
ECP-12
ECP-12
ECP-12
ECP-12
ECP-12
ECP-12
ECP-12
ECP-12
ECP-12
ECP-12
ECP-12
ECP-12
ECP-12
ECP-12
ECP-12
ECP-12
ECP-12
ECP-12
ECP-12
ECP-12
ECP-12
ECP-12
ECP-12
ECP-12
ECP-12
ECP-12
ECP-12
ECP-12
ECP-12
ECP-12
ECP-12
ECP-12
ECP-12
ECP-12
ECP-12
ECP-12
ECP-12
ECP-12
ECP-12
ECP-12
ECP-12
ECP-12
ECP-12
ECP-12
ECP-12
ECP-12
ECP-12
ECP-12
ECP-12
ECP-12
ECP-12
ECP-12
ECP-12
ECP-12
ECP-12
ECP-12
ECP-12
ECP-12
ECP-12
ECP-12
ECP-12
ECP-12
ECP-12
ECP-12
ECP-12
ECP-12
ECP-12
ECP-12
ECP-12
ECP-12
ECP-12
ECP-12
ECP-12
ECP-12
ECP-12
ECP-12
ECP-12
ECP-12
ECP-12
ECP-12
ECP-12
ECP-12
ECP-12
ECP-12
ECP-12
ECP-12
ECP-12
ECP-12
ECP-12
ECP-12
ECP-12
ECP-12
ECP-12
ECP-12
ECP-12
ECP-12
ECP-12
ECP-12
ECP-12
ECP-12
ECP-12
ECP-12
ECP-12
ECP-12
ECP-12
ECP-12
ECP-12
ECP-12
ECP-12
ECP-12
ECP-12
ECP-12
ECP-12
ECP-12
ECP-12
ECP-12
ECP-12
ECP-12
ECP-12
ECP-12
ECP-12
ECP-12
ECP-12
ECP-12
ECP-12
ECP-12
ECP-12
ECP-12
ECP-12
ECP-12
ECP-12
ECP-12
ECP-12
ECP-12
ECP-12
ECP-12
ECP-12
ECP-12
ECP-12
ECP-12
ECP-12
ECP-12
ECP-12
ECP-12
ECP-12
ECP-12
ECP-12
ECP-12
ECP-12
ECP-12
ECP-12
ECP-12
ECP-12
ECP-12
ECP-12
ECP-12
ECP-12
ECP-12
ECP-12
ECP-12
ECP-12
ECP-12
ECP-12
ECP-12
ECP-12
ECP-12
ECP-12
ECP-12
ECP-12
ECP-12
ECP-12
ECP-12
ECP-12
ECP-12
ECP-12
ECP-12
ECP-12
ECP-12
ECP-12
ECP-12
ECP-12
ECP-12
ECP-12
ECP-12
ECP-12
ECP-12
ECP-12
ECP-12
ECP-12
ECP-12
ECP-12
ECP-12
ECP-12
ECP-12
ECP-12
ECP-12
ECP-12
ECP-12
ECP-12
ECP-12
ECP-12
ECP-12
ECP-12
ECP-12
ECP-12
ECP-12
ECP-12
ECP-12
ECP-12
ECP-12
ECP-12
ECP-12
ECP-12
ECP-12
ECP-12
ECP-12
ECP-12
ECP-12
ECP-12
ECP-12
ECP-12
ECP-12
ECP-12
ECP-12
ECP-12
ECP-12
ECP-12
ECP-12
ECP-12
ECP-12
ECP-12
ECP-12
ECP-12
ECP-12
ECP-12
ECP-12
ECP-12
ECP-12
ECP-12
ECP-12
ECP-12
ECP-12
ECP-12
ECP-12
ECP-12
ECP-12
ECP-12
ECP-12
ECP-12
ECP-12
ECP-12
ECP-12
ECP-12
ECP-12
ECP-12
ECP-12
ECP-12
ECP-12
ECP-12
ECP-12
ECP-12
ECP-12
ECP-12
ECP-12
ECP-12
ECP-12
ECP-12
ECP-12
ECP-12
ECP-12
ECP-12
ECP-12
ECP-12
ECP-12
ECP-12
ECP-12
ECP-12
ECP-12
ECP-12
ECP-12
ECP-12
ECP-12
ECP-12
ECP-12
ECP-12
ECP-12
ECP-12
ECP-12
ECP-12
ECP-12
ECP-12
ECP-12
ECP-12
ECP-12
ECP-12
ECP-12
ECP-12
ECP-12
ECP-12
ECP-12
ECP-12
ECP-12
ECP-12
ECP-12
ECP-12
ECP-12
ECP-12
ECP-12
ECP-12
ECP-12
ECP-12
ECP-12
ECP-12
ECP-12
ECP-12
ECP-12
ECP-12
ECP-12
ECP-12
ECP-12
ECP-12
ECP-12
ECP-12
ECP-12
ECP-12
ECP-12
ECP-12
ECP-12
ECP-12
ECP-12
ECP-12
ECP-12
ECP-12
ECP-12
ECP-12
ECP-12
ECP-12
ECP-12
ECP-12
ECP-12
ECP-12
ECP-12
ECP-12
ECP-12
ECP-12
ECP-12
ECP-12
ECP-12
ECP-12
ECP-12
ECP-12
ECP-12
ECP-12
ECP-12
ECP-12
ECP-12
ECP-12
ECP-12
ECP-12
ECP-12
ECP-12
ECP-12
ECP-12
ECP-12
ECP-12
ECP-12
ECP-12
ECP-12
ECP-12
ECP-12
ECP-12
ECP-12
ECP-12
ECP-12
ECP-12
ECP-12
ECP-12
ECP-12
ECP-12
ECP-12
ECP-12
ECP-12
ECP-12
ECP-12
ECP-12
ECP-12
ECP-12
ECP-12
ECP-12
ECP-12
ECP-12
ECP-12
ECP-12
ECP-12
ECP-12
ECP-12
ECP-12
ECP-12
ECP-12
ECP-12
ECP-12
ECP-12
ECP-12
ECP-12
ECP-12
ECP-12
ECP-12
ECP-12
ECP-12
ECP-12
ECP-12
ECP-12
ECP-12
ECP-12
ECP-12
ECP-12
ECP-12
ECP-12
ECP-12

unit=angs
geom=xyz
617
Mg38O79ECP500
O     0.00000000000    0.00000000000    0.00000000000
Mg    0.00000000000    0.00000000000    2.10322906414
Mg   -2.10322906414    0.00000000000    0.00000000000
Mg    0.00000000000    2.10322906414    0.00000000000
Mg    2.10322906414    0.00000000000    0.00000000000
Mg    0.00000000000   -2.10322906414    0.00000000000
Mg    0.00000000000    0.00000000000   -2.10322906414
O    -2.10322906414    0.00000000000    2.10322906414
O     0.00000000000    2.10322906414    2.10322906414
O     2.10322906414    0.00000000000    2.10322906414
O     0.00000000000   -2.10322906414    2.10322906414
O    -2.10322906414    2.10322906414    0.00000000000
O     2.10322906414    2.10322906414    0.00000000000
O     2.10322906414   -2.10322906414    0.00000000000
O    -2.10322906414   -2.10322906414    0.00000000000
O    -2.10322906414    0.00000000000   -2.10322906414
O     0.00000000000    2.10322906414   -2.10322906414
O     2.10322906414    0.00000000000   -2.10322906414
O     0.00000000000   -2.10322906414   -2.10322906414
Mg   -2.10322906414    2.10322906414    2.10322906414
Mg    2.10322906414    2.10322906414    2.10322906414
Mg    2.10322906414   -2.10322906414    2.10322906414
Mg   -2.10322906414   -2.10322906414    2.10322906414
Mg   -2.10322906414    2.10322906414   -2.10322906414
Mg    2.10322906414    2.10322906414   -2.10322906414
Mg    2.10322906414   -2.10322906414   -2.10322906414
Mg   -2.10322906414   -2.10322906414   -2.10322906414
O     0.00000000000    0.00000000000    4.20645812828
O    -4.20645812828    0.00000000000    0.00000000000
O     0.00000000000    4.20645812828    0.00000000000
O     4.20645812828    0.00000000000    0.00000000000
O     0.00000000000   -4.20645812828    0.00000000000
O     0.00000000000    0.00000000000   -4.20645812828
Mg   -2.10322906414    0.00000000000    4.20645812828
Mg    0.00000000000    2.10322906414    4.20645812828
Mg    2.10322906414    0.00000000000    4.20645812828
Mg    0.00000000000   -2.10322906414    4.20645812828
Mg   -4.20645812828    0.00000000000    2.10322906414
Mg    0.00000000000    4.20645812828    2.10322906414
Mg    4.20645812828    0.00000000000    2.10322906414
Mg    0.00000000000   -4.20645812828    2.10322906414
Mg   -4.20645812828    2.10322906414    0.00000000000
Mg   -2.10322906414    4.20645812828    0.00000000000
Mg    2.10322906414    4.20645812828    0.00000000000
Mg    4.20645812828    2.10322906414    0.00000000000
Mg    4.20645812828   -2.10322906414    0.00000000000
Mg    2.10322906414   -4.20645812828    0.00000000000
Mg   -2.10322906414   -4.20645812828    0.00000000000
Mg   -4.20645812828   -2.10322906414    0.00000000000
Mg   -4.20645812828    0.00000000000   -2.10322906414
Mg    0.00000000000    4.20645812828   -2.10322906414
Mg    4.20645812828    0.00000000000   -2.10322906414
Mg    0.00000000000   -4.20645812828   -2.10322906414
Mg   -2.10322906414    0.00000000000   -4.20645812828
Mg    0.00000000000    2.10322906414   -4.20645812828
Mg    2.10322906414    0.00000000000   -4.20645812828
Mg    0.00000000000   -2.10322906414   -4.20645812828
O    -2.10322906414    2.10322906414    4.20645812828
O     2.10322906414    2.10322906414    4.20645812828
O     2.10322906414   -2.10322906414    4.20645812828
O    -2.10322906414   -2.10322906414    4.20645812828
O    -4.20645812828    2.10322906414    2.10322906414
O    -2.10322906414    4.20645812828    2.10322906414
O     2.10322906414    4.20645812828    2.10322906414
O     4.20645812828    2.10322906414    2.10322906414
O     4.20645812828   -2.10322906414    2.10322906414
O     2.10322906414   -4.20645812828    2.10322906414
O    -2.10322906414   -4.20645812828    2.10322906414
O    -4.20645812828   -2.10322906414    2.10322906414
O    -4.20645812828    2.10322906414   -2.10322906414
O    -2.10322906414    4.20645812828   -2.10322906414
O     2.10322906414    4.20645812828   -2.10322906414
O     4.20645812828    2.10322906414   -2.10322906414
O     4.20645812828   -2.10322906414   -2.10322906414
O     2.10322906414   -4.20645812828   -2.10322906414
O    -2.10322906414   -4.20645812828   -2.10322906414
O    -4.20645812828   -2.10322906414   -2.10322906414
O    -2.10322906414    2.10322906414   -4.20645812828
O     2.10322906414    2.10322906414   -4.20645812828
O     2.10322906414   -2.10322906414   -4.20645812828
O    -2.10322906414   -2.10322906414   -4.20645812828
O    -4.20645812828    0.00000000000    4.20645812828
O     0.00000000000    4.20645812828    4.20645812828
O     4.20645812828    0.00000000000    4.20645812828
O     0.00000000000   -4.20645812828    4.20645812828
O    -4.20645812828    4.20645812828    0.00000000000
O     4.20645812828    4.20645812828    0.00000000000
O     4.20645812828   -4.20645812828    0.00000000000
O    -4.20645812828   -4.20645812828    0.00000000000
O    -4.20645812828    0.00000000000   -4.20645812828
O     0.00000000000    4.20645812828   -4.20645812828
O     4.20645812828    0.00000000000   -4.20645812828
O     0.00000000000   -4.20645812828   -4.20645812828
O    -2.10322906414    0.00000000000    6.30968719243
O     0.00000000000    2.10322906414    6.30968719243
O     2.10322906414    0.00000000000    6.30968719243
O     0.00000000000   -2.10322906414    6.30968719243
O    -6.30968719243    0.00000000000    2.10322906414
O     0.00000000000    6.30968719243    2.10322906414
O     6.30968719243    0.00000000000    2.10322906414
O     0.00000000000   -6.30968719243    2.10322906414
O    -6.30968719243    2.10322906414    0.00000000000
O    -2.10322906414    6.30968719243    0.00000000000
O     2.10322906414    6.30968719243    0.00000000000
O     6.30968719243    2.10322906414    0.00000000000
O     6.30968719243   -2.10322906414    0.00000000000
O     2.10322906414   -6.30968719243    0.00000000000
O    -2.10322906414   -6.30968719243    0.00000000000
O    -6.30968719243   -2.10322906414    0.00000000000
O    -6.30968719243    0.00000000000   -2.10322906414
O     0.00000000000    6.30968719243   -2.10322906414
O     6.30968719243    0.00000000000   -2.10322906414
O     0.00000000000   -6.30968719243   -2.10322906414
O    -2.10322906414    0.00000000000   -6.30968719243
O     0.00000000000    2.10322906414   -6.30968719243
O     2.10322906414    0.00000000000   -6.30968719243
O     0.00000000000   -2.10322906414   -6.30968719243
Mg    0.00000000000    0.00000000000    6.30968719243
Mg   -4.20645812828    2.10322906414    4.20645812828
Mg   -2.10322906414    4.20645812828    4.20645812828
Mg    2.10322906414    4.20645812828    4.20645812828
Mg    4.20645812828    2.10322906414    4.20645812828
Mg    4.20645812828   -2.10322906414    4.20645812828
Mg    2.10322906414   -4.20645812828    4.20645812828
Mg   -2.10322906414   -4.20645812828    4.20645812828
Mg   -4.20645812828   -2.10322906414    4.20645812828
Mg   -4.20645812828    4.20645812828    2.10322906414
Mg    4.20645812828    4.20645812828    2.10322906414
Mg    4.20645812828   -4.20645812828    2.10322906414
Mg   -4.20645812828   -4.20645812828    2.10322906414
Mg   -6.30968719243    0.00000000000    0.00000000000
Mg    0.00000000000    6.30968719243    0.00000000000
Mg    6.30968719243    0.00000000000    0.00000000000
Mg    0.00000000000   -6.30968719243    0.00000000000
Mg   -4.20645812828    4.20645812828   -2.10322906414
Mg    4.20645812828    4.20645812828   -2.10322906414
Mg    4.20645812828   -4.20645812828   -2.10322906414
Mg   -4.20645812828   -4.20645812828   -2.10322906414
Mg   -4.20645812828    2.10322906414   -4.20645812828
Mg   -2.10322906414    4.20645812828   -4.20645812828
Mg    2.10322906414    4.20645812828   -4.20645812828
Mg    4.20645812828    2.10322906414   -4.20645812828
Mg    4.20645812828   -2.10322906414   -4.20645812828
Mg    2.10322906414   -4.20645812828   -4.20645812828
Mg   -2.10322906414   -4.20645812828   -4.20645812828
Mg   -4.20645812828   -2.10322906414   -4.20645812828
Mg    0.00000000000    0.00000000000   -6.30968719243
Mg   -2.10322906414    2.10322906414    6.30968719243
Mg    2.10322906414    2.10322906414    6.30968719243
Mg    2.10322906414   -2.10322906414    6.30968719243
Mg   -2.10322906414   -2.10322906414    6.30968719243
Mg   -6.30968719243    2.10322906414    2.10322906414
Mg   -2.10322906414    6.30968719243    2.10322906414
Mg    2.10322906414    6.30968719243    2.10322906414
Mg    6.30968719243    2.10322906414    2.10322906414
Mg    6.30968719243   -2.10322906414    2.10322906414
Mg    2.10322906414   -6.30968719243    2.10322906414
Mg   -2.10322906414   -6.30968719243    2.10322906414
Mg   -6.30968719243   -2.10322906414    2.10322906414
Mg   -6.30968719243    2.10322906414   -2.10322906414
Mg   -2.10322906414    6.30968719243   -2.10322906414
Mg    2.10322906414    6.30968719243   -2.10322906414
Mg    6.30968719243    2.10322906414   -2.10322906414
Mg    6.30968719243   -2.10322906414   -2.10322906414
Mg    2.10322906414   -6.30968719243   -2.10322906414
Mg   -2.10322906414   -6.30968719243   -2.10322906414
Mg   -6.30968719243   -2.10322906414   -2.10322906414
Mg   -2.10322906414    2.10322906414   -6.30968719243
Mg    2.10322906414    2.10322906414   -6.30968719243
Mg    2.10322906414   -2.10322906414   -6.30968719243
Mg   -2.10322906414   -2.10322906414   -6.30968719243
Mg   -4.20645812828    0.00000000000    6.30968719243
Mg    0.00000000000    4.20645812828    6.30968719243
Mg    4.20645812828    0.00000000000    6.30968719243
Mg    0.00000000000   -4.20645812828    6.30968719243
Mg   -6.30968719243    0.00000000000    4.20645812828
Mg    0.00000000000    6.30968719243    4.20645812828
Mg    6.30968719243    0.00000000000    4.20645812828
Mg    0.00000000000   -6.30968719243    4.20645812828
Mg   -6.30968719243    4.20645812828    0.00000000000
Mg   -4.20645812828    6.30968719243    0.00000000000
Mg    4.20645812828    6.30968719243    0.00000000000
Mg    6.30968719243    4.20645812828    0.00000000000
Mg    6.30968719243   -4.20645812828    0.00000000000
Mg    4.20645812828   -6.30968719243    0.00000000000
Mg   -4.20645812828   -6.30968719243    0.00000000000
Mg   -6.30968719243   -4.20645812828    0.00000000000
Mg   -6.30968719243    0.00000000000   -4.20645812828
Mg    0.00000000000    6.30968719243   -4.20645812828
Mg    6.30968719243    0.00000000000   -4.20645812828
Mg    0.00000000000   -6.30968719243   -4.20645812828
Mg   -4.20645812828    0.00000000000   -6.30968719243
Mg    0.00000000000    4.20645812828   -6.30968719243
Mg    4.20645812828    0.00000000000   -6.30968719243
Mg    0.00000000000   -4.20645812828   -6.30968719243
Mg   -2.10322906414    0.00000000000    8.41291625657
Mg    0.00000000000    2.10322906414    8.41291625657
Mg    2.10322906414    0.00000000000    8.41291625657
Mg    0.00000000000   -2.10322906414    8.41291625657
Mg   -4.20645812828    4.20645812828    6.30968719243
Mg    4.20645812828    4.20645812828    6.30968719243
Mg    4.20645812828   -4.20645812828    6.30968719243
Mg   -4.20645812828   -4.20645812828    6.30968719243
Mg   -6.30968719243    4.20645812828    4.20645812828
Mg   -4.20645812828    6.30968719243    4.20645812828
Mg    4.20645812828    6.30968719243    4.20645812828
Mg    6.30968719243    4.20645812828    4.20645812828
Mg    6.30968719243   -4.20645812828    4.20645812828
Mg    4.20645812828   -6.30968719243    4.20645812828
Mg   -4.20645812828   -6.30968719243    4.20645812828
Mg   -6.30968719243   -4.20645812828    4.20645812828
Mg   -8.41291625657    0.00000000000    2.10322906414
Mg    0.00000000000    8.41291625657    2.10322906414
Mg    8.41291625657    0.00000000000    2.10322906414
Mg    0.00000000000   -8.41291625657    2.10322906414
Mg   -8.41291625657    2.10322906414    0.00000000000
Mg   -2.10322906414    8.41291625657    0.00000000000
Mg    2.10322906414    8.41291625657    0.00000000000
Mg    8.41291625657    2.10322906414    0.00000000000
Mg    8.41291625657   -2.10322906414    0.00000000000
Mg    2.10322906414   -8.41291625657    0.00000000000
Mg   -2.10322906414   -8.41291625657    0.00000000000
Mg   -8.41291625657   -2.10322906414    0.00000000000
Mg   -8.41291625657    0.00000000000   -2.10322906414
Mg    0.00000000000    8.41291625657   -2.10322906414
Mg    8.41291625657    0.00000000000   -2.10322906414
Mg    0.00000000000   -8.41291625657   -2.10322906414
Mg   -6.30968719243    4.20645812828   -4.20645812828
Mg   -4.20645812828    6.30968719243   -4.20645812828
Mg    4.20645812828    6.30968719243   -4.20645812828
Mg    6.30968719243    4.20645812828   -4.20645812828
Mg    6.30968719243   -4.20645812828   -4.20645812828
Mg    4.20645812828   -6.30968719243   -4.20645812828
Mg   -4.20645812828   -6.30968719243   -4.20645812828
Mg   -6.30968719243   -4.20645812828   -4.20645812828
Mg   -4.20645812828    4.20645812828   -6.30968719243
Mg    4.20645812828    4.20645812828   -6.30968719243
Mg    4.20645812828   -4.20645812828   -6.30968719243
Mg   -4.20645812828   -4.20645812828   -6.30968719243
Mg   -2.10322906414    0.00000000000   -8.41291625657
Mg    0.00000000000    2.10322906414   -8.41291625657
Mg    2.10322906414    0.00000000000   -8.41291625657
Mg    0.00000000000   -2.10322906414   -8.41291625657
Mg   -6.30968719243    2.10322906414    6.30968719243
Mg   -2.10322906414    6.30968719243    6.30968719243
Mg    2.10322906414    6.30968719243    6.30968719243
Mg    6.30968719243    2.10322906414    6.30968719243
Mg    6.30968719243   -2.10322906414    6.30968719243
Mg    2.10322906414   -6.30968719243    6.30968719243
Mg   -2.10322906414   -6.30968719243    6.30968719243
Mg   -6.30968719243   -2.10322906414    6.30968719243
Mg   -6.30968719243    6.30968719243    2.10322906414
Mg    6.30968719243    6.30968719243    2.10322906414
Mg    6.30968719243   -6.30968719243    2.10322906414
Mg   -6.30968719243   -6.30968719243    2.10322906414
Mg   -6.30968719243    6.30968719243   -2.10322906414
Mg    6.30968719243    6.30968719243   -2.10322906414
Mg    6.30968719243   -6.30968719243   -2.10322906414
Mg   -6.30968719243   -6.30968719243   -2.10322906414
Mg   -6.30968719243    2.10322906414   -6.30968719243
Mg   -2.10322906414    6.30968719243   -6.30968719243
Mg    2.10322906414    6.30968719243   -6.30968719243
Mg    6.30968719243    2.10322906414   -6.30968719243
Mg    6.30968719243   -2.10322906414   -6.30968719243
Mg    2.10322906414   -6.30968719243   -6.30968719243
Mg   -2.10322906414   -6.30968719243   -6.30968719243
Mg   -6.30968719243   -2.10322906414   -6.30968719243
Mg   -4.20645812828    2.10322906414    8.41291625657
Mg   -2.10322906414    4.20645812828    8.41291625657
Mg    2.10322906414    4.20645812828    8.41291625657
Mg    4.20645812828    2.10322906414    8.41291625657
Mg    4.20645812828   -2.10322906414    8.41291625657
Mg    2.10322906414   -4.20645812828    8.41291625657
Mg   -2.10322906414   -4.20645812828    8.41291625657
Mg   -4.20645812828   -2.10322906414    8.41291625657
Mg   -8.41291625657    2.10322906414    4.20645812828
Mg   -2.10322906414    8.41291625657    4.20645812828
Mg    2.10322906414    8.41291625657    4.20645812828
Mg    8.41291625657    2.10322906414    4.20645812828
Mg    8.41291625657   -2.10322906414    4.20645812828
Mg    2.10322906414   -8.41291625657    4.20645812828
Mg   -2.10322906414   -8.41291625657    4.20645812828
Mg   -8.41291625657   -2.10322906414    4.20645812828
Mg   -8.41291625657    4.20645812828    2.10322906414
Mg   -4.20645812828    8.41291625657    2.10322906414
Mg    4.20645812828    8.41291625657    2.10322906414
Mg    8.41291625657    4.20645812828    2.10322906414
Mg    8.41291625657   -4.20645812828    2.10322906414
Mg    4.20645812828   -8.41291625657    2.10322906414
Mg   -4.20645812828   -8.41291625657    2.10322906414
Mg   -8.41291625657   -4.20645812828    2.10322906414
Mg   -8.41291625657    4.20645812828   -2.10322906414
Mg   -4.20645812828    8.41291625657   -2.10322906414
Mg    4.20645812828    8.41291625657   -2.10322906414
Mg    8.41291625657    4.20645812828   -2.10322906414
Mg    8.41291625657   -4.20645812828   -2.10322906414
Mg    4.20645812828   -8.41291625657   -2.10322906414
Mg   -4.20645812828   -8.41291625657   -2.10322906414
Mg   -8.41291625657   -4.20645812828   -2.10322906414
Mg   -8.41291625657    2.10322906414   -4.20645812828
Mg   -2.10322906414    8.41291625657   -4.20645812828
Mg    2.10322906414    8.41291625657   -4.20645812828
Mg    8.41291625657    2.10322906414   -4.20645812828
Mg    8.41291625657   -2.10322906414   -4.20645812828
Mg    2.10322906414   -8.41291625657   -4.20645812828
Mg   -2.10322906414   -8.41291625657   -4.20645812828
Mg   -8.41291625657   -2.10322906414   -4.20645812828
Mg   -4.20645812828    2.10322906414   -8.41291625657
Mg   -2.10322906414    4.20645812828   -8.41291625657
Mg    2.10322906414    4.20645812828   -8.41291625657
Mg    4.20645812828    2.10322906414   -8.41291625657
Mg    4.20645812828   -2.10322906414   -8.41291625657
Mg    2.10322906414   -4.20645812828   -8.41291625657
Mg   -2.10322906414   -4.20645812828   -8.41291625657
Mg   -4.20645812828   -2.10322906414   -8.41291625657
Mg    0.00000000000    0.00000000000   10.51614532071
Mg   -6.30968719243    0.00000000000    8.41291625657
Mg    0.00000000000    6.30968719243    8.41291625657
Mg    6.30968719243    0.00000000000    8.41291625657
Mg    0.00000000000   -6.30968719243    8.41291625657
Mg   -8.41291625657    0.00000000000    6.30968719243
Mg    0.00000000000    8.41291625657    6.30968719243
Mg    8.41291625657    0.00000000000    6.30968719243
Mg    0.00000000000   -8.41291625657    6.30968719243
Mg  -10.51614532071    0.00000000000    0.00000000000
Mg   -8.41291625657    6.30968719243    0.00000000000
Mg   -6.30968719243    8.41291625657    0.00000000000
Mg    0.00000000000   10.51614532071    0.00000000000
Mg    6.30968719243    8.41291625657    0.00000000000
Mg    8.41291625657    6.30968719243    0.00000000000
Mg   10.51614532071    0.00000000000    0.00000000000
Mg    8.41291625657   -6.30968719243    0.00000000000
Mg    6.30968719243   -8.41291625657    0.00000000000
Mg    0.00000000000  -10.51614532071    0.00000000000
Mg   -6.30968719243   -8.41291625657    0.00000000000
Mg   -8.41291625657   -6.30968719243    0.00000000000
Mg   -8.41291625657    0.00000000000   -6.30968719243
Mg    0.00000000000    8.41291625657   -6.30968719243
Mg    8.41291625657    0.00000000000   -6.30968719243
Mg    0.00000000000   -8.41291625657   -6.30968719243
Mg   -6.30968719243    0.00000000000   -8.41291625657
Mg    0.00000000000    6.30968719243   -8.41291625657
Mg    6.30968719243    0.00000000000   -8.41291625657
Mg    0.00000000000   -6.30968719243   -8.41291625657
Mg    0.00000000000    0.00000000000  -10.51614532071
Mg   -2.10322906414    2.10322906414   10.51614532071
Mg    2.10322906414    2.10322906414   10.51614532071
Mg    2.10322906414   -2.10322906414   10.51614532071
Mg   -2.10322906414   -2.10322906414   10.51614532071
Mg   -6.30968719243    6.30968719243    6.30968719243
Mg    6.30968719243    6.30968719243    6.30968719243
Mg    6.30968719243   -6.30968719243    6.30968719243
Mg   -6.30968719243   -6.30968719243    6.30968719243
Mg  -10.51614532071    2.10322906414    2.10322906414
Mg   -2.10322906414   10.51614532071    2.10322906414
Mg    2.10322906414   10.51614532071    2.10322906414
Mg   10.51614532071    2.10322906414    2.10322906414
Mg   10.51614532071   -2.10322906414    2.10322906414
Mg    2.10322906414  -10.51614532071    2.10322906414
Mg   -2.10322906414  -10.51614532071    2.10322906414
Mg  -10.51614532071   -2.10322906414    2.10322906414
Mg  -10.51614532071    2.10322906414   -2.10322906414
Mg   -2.10322906414   10.51614532071   -2.10322906414
Mg    2.10322906414   10.51614532071   -2.10322906414
Mg   10.51614532071    2.10322906414   -2.10322906414
Mg   10.51614532071   -2.10322906414   -2.10322906414
Mg    2.10322906414  -10.51614532071   -2.10322906414
Mg   -2.10322906414  -10.51614532071   -2.10322906414
Mg  -10.51614532071   -2.10322906414   -2.10322906414
Mg   -6.30968719243    6.30968719243   -6.30968719243
Mg    6.30968719243    6.30968719243   -6.30968719243
Mg    6.30968719243   -6.30968719243   -6.30968719243
Mg   -6.30968719243   -6.30968719243   -6.30968719243
Mg   -2.10322906414    2.10322906414  -10.51614532071
Mg    2.10322906414    2.10322906414  -10.51614532071
Mg    2.10322906414   -2.10322906414  -10.51614532071
Mg   -2.10322906414   -2.10322906414  -10.51614532071
Mg   -4.20645812828    0.00000000000   10.51614532071
Mg    0.00000000000    4.20645812828   10.51614532071
Mg    4.20645812828    0.00000000000   10.51614532071
Mg    0.00000000000   -4.20645812828   10.51614532071
Mg   -6.30968719243    4.20645812828    8.41291625657
Mg   -4.20645812828    6.30968719243    8.41291625657
Mg    4.20645812828    6.30968719243    8.41291625657
Mg    6.30968719243    4.20645812828    8.41291625657
Mg    6.30968719243   -4.20645812828    8.41291625657
Mg    4.20645812828   -6.30968719243    8.41291625657
Mg   -4.20645812828   -6.30968719243    8.41291625657
Mg   -6.30968719243   -4.20645812828    8.41291625657
Mg   -8.41291625657    4.20645812828    6.30968719243
Mg   -4.20645812828    8.41291625657    6.30968719243
Mg    4.20645812828    8.41291625657    6.30968719243
Mg    8.41291625657    4.20645812828    6.30968719243
Mg    8.41291625657   -4.20645812828    6.30968719243
Mg    4.20645812828   -8.41291625657    6.30968719243
Mg   -4.20645812828   -8.41291625657    6.30968719243
Mg   -8.41291625657   -4.20645812828    6.30968719243
Mg  -10.51614532071    0.00000000000    4.20645812828
Mg   -8.41291625657    6.30968719243    4.20645812828
Mg   -6.30968719243    8.41291625657    4.20645812828
Mg    0.00000000000   10.51614532071    4.20645812828
Mg    6.30968719243    8.41291625657    4.20645812828
Mg    8.41291625657    6.30968719243    4.20645812828
Mg   10.51614532071    0.00000000000    4.20645812828
Mg    8.41291625657   -6.30968719243    4.20645812828
Mg    6.30968719243   -8.41291625657    4.20645812828
Mg    0.00000000000  -10.51614532071    4.20645812828
Mg   -6.30968719243   -8.41291625657    4.20645812828
Mg   -8.41291625657   -6.30968719243    4.20645812828
Mg  -10.51614532071    4.20645812828    0.00000000000
Mg   -4.20645812828   10.51614532071    0.00000000000
Mg    4.20645812828   10.51614532071    0.00000000000
Mg   10.51614532071    4.20645812828    0.00000000000
Mg   10.51614532071   -4.20645812828    0.00000000000
Mg    4.20645812828  -10.51614532071    0.00000000000
Mg   -4.20645812828  -10.51614532071    0.00000000000
Mg  -10.51614532071   -4.20645812828    0.00000000000
Mg  -10.51614532071    0.00000000000   -4.20645812828
Mg   -8.41291625657    6.30968719243   -4.20645812828
Mg   -6.30968719243    8.41291625657   -4.20645812828
Mg    0.00000000000   10.51614532071   -4.20645812828
Mg    6.30968719243    8.41291625657   -4.20645812828
Mg    8.41291625657    6.30968719243   -4.20645812828
Mg   10.51614532071    0.00000000000   -4.20645812828
Mg    8.41291625657   -6.30968719243   -4.20645812828
Mg    6.30968719243   -8.41291625657   -4.20645812828
Mg    0.00000000000  -10.51614532071   -4.20645812828
Mg   -6.30968719243   -8.41291625657   -4.20645812828
Mg   -8.41291625657   -6.30968719243   -4.20645812828
Mg   -8.41291625657    4.20645812828   -6.30968719243
Mg   -4.20645812828    8.41291625657   -6.30968719243
Mg    4.20645812828    8.41291625657   -6.30968719243
Mg    8.41291625657    4.20645812828   -6.30968719243
Mg    8.41291625657   -4.20645812828   -6.30968719243
Mg    4.20645812828   -8.41291625657   -6.30968719243
Mg   -4.20645812828   -8.41291625657   -6.30968719243
Mg   -8.41291625657   -4.20645812828   -6.30968719243
Mg   -6.30968719243    4.20645812828   -8.41291625657
Mg   -4.20645812828    6.30968719243   -8.41291625657
Mg    4.20645812828    6.30968719243   -8.41291625657
Mg    6.30968719243    4.20645812828   -8.41291625657
Mg    6.30968719243   -4.20645812828   -8.41291625657
Mg    4.20645812828   -6.30968719243   -8.41291625657
Mg   -4.20645812828   -6.30968719243   -8.41291625657
Mg   -6.30968719243   -4.20645812828   -8.41291625657
Mg   -4.20645812828    0.00000000000  -10.51614532071
Mg    0.00000000000    4.20645812828  -10.51614532071
Mg    4.20645812828    0.00000000000  -10.51614532071
Mg    0.00000000000   -4.20645812828  -10.51614532071
Mg   -4.20645812828    4.20645812828   10.51614532071
Mg    4.20645812828    4.20645812828   10.51614532071
Mg    4.20645812828   -4.20645812828   10.51614532071
Mg   -4.20645812828   -4.20645812828   10.51614532071
Mg   -8.41291625657    2.10322906414    8.41291625657
Mg   -2.10322906414    8.41291625657    8.41291625657
Mg    2.10322906414    8.41291625657    8.41291625657
Mg    8.41291625657    2.10322906414    8.41291625657
Mg    8.41291625657   -2.10322906414    8.41291625657
Mg    2.10322906414   -8.41291625657    8.41291625657
Mg   -2.10322906414   -8.41291625657    8.41291625657
Mg   -8.41291625657   -2.10322906414    8.41291625657
Mg  -10.51614532071    4.20645812828    4.20645812828
Mg   -4.20645812828   10.51614532071    4.20645812828
Mg    4.20645812828   10.51614532071    4.20645812828
Mg   10.51614532071    4.20645812828    4.20645812828
Mg   10.51614532071   -4.20645812828    4.20645812828
Mg    4.20645812828  -10.51614532071    4.20645812828
Mg   -4.20645812828  -10.51614532071    4.20645812828
Mg  -10.51614532071   -4.20645812828    4.20645812828
Mg   -8.41291625657    8.41291625657    2.10322906414
Mg    8.41291625657    8.41291625657    2.10322906414
Mg    8.41291625657   -8.41291625657    2.10322906414
Mg   -8.41291625657   -8.41291625657    2.10322906414
Mg   -8.41291625657    8.41291625657   -2.10322906414
Mg    8.41291625657    8.41291625657   -2.10322906414
Mg    8.41291625657   -8.41291625657   -2.10322906414
Mg   -8.41291625657   -8.41291625657   -2.10322906414
Mg  -10.51614532071    4.20645812828   -4.20645812828
Mg   -4.20645812828   10.51614532071   -4.20645812828
Mg    4.20645812828   10.51614532071   -4.20645812828
Mg   10.51614532071    4.20645812828   -4.20645812828
Mg   10.51614532071   -4.20645812828   -4.20645812828
Mg    4.20645812828  -10.51614532071   -4.20645812828
Mg   -4.20645812828  -10.51614532071   -4.20645812828
Mg  -10.51614532071   -4.20645812828   -4.20645812828
Mg   -8.41291625657    2.10322906414   -8.41291625657
Mg   -2.10322906414    8.41291625657   -8.41291625657
Mg    2.10322906414    8.41291625657   -8.41291625657
Mg    8.41291625657    2.10322906414   -8.41291625657
Mg    8.41291625657   -2.10322906414   -8.41291625657
Mg    2.10322906414   -8.41291625657   -8.41291625657
Mg   -2.10322906414   -8.41291625657   -8.41291625657
Mg   -8.41291625657   -2.10322906414   -8.41291625657
Mg   -4.20645812828    4.20645812828  -10.51614532071
Mg    4.20645812828    4.20645812828  -10.51614532071
Mg    4.20645812828   -4.20645812828  -10.51614532071
Mg   -4.20645812828   -4.20645812828  -10.51614532071
Mg   -6.30968719243    2.10322906414   10.51614532071
Mg   -2.10322906414    6.30968719243   10.51614532071
Mg    2.10322906414    6.30968719243   10.51614532071
Mg    6.30968719243    2.10322906414   10.51614532071
Mg    6.30968719243   -2.10322906414   10.51614532071
Mg    2.10322906414   -6.30968719243   10.51614532071
Mg   -2.10322906414   -6.30968719243   10.51614532071
Mg   -6.30968719243   -2.10322906414   10.51614532071
Mg  -10.51614532071    2.10322906414    6.30968719243
Mg   -2.10322906414   10.51614532071    6.30968719243
Mg    2.10322906414   10.51614532071    6.30968719243
Mg   10.51614532071    2.10322906414    6.30968719243
Mg   10.51614532071   -2.10322906414    6.30968719243
Mg    2.10322906414  -10.51614532071    6.30968719243
Mg   -2.10322906414  -10.51614532071    6.30968719243
Mg  -10.51614532071   -2.10322906414    6.30968719243
Mg  -10.51614532071    6.30968719243    2.10322906414
Mg   -6.30968719243   10.51614532071    2.10322906414
Mg    6.30968719243   10.51614532071    2.10322906414
Mg   10.51614532071    6.30968719243    2.10322906414
Mg   10.51614532071   -6.30968719243    2.10322906414
Mg    6.30968719243  -10.51614532071    2.10322906414
Mg   -6.30968719243  -10.51614532071    2.10322906414
Mg  -10.51614532071   -6.30968719243    2.10322906414
Mg  -10.51614532071    6.30968719243   -2.10322906414
Mg   -6.30968719243   10.51614532071   -2.10322906414
Mg    6.30968719243   10.51614532071   -2.10322906414
Mg   10.51614532071    6.30968719243   -2.10322906414
Mg   10.51614532071   -6.30968719243   -2.10322906414
Mg    6.30968719243  -10.51614532071   -2.10322906414
Mg   -6.30968719243  -10.51614532071   -2.10322906414
Mg  -10.51614532071   -6.30968719243   -2.10322906414
Mg  -10.51614532071    2.10322906414   -6.30968719243
Mg   -2.10322906414   10.51614532071   -6.30968719243
Mg    2.10322906414   10.51614532071   -6.30968719243
Mg   10.51614532071    2.10322906414   -6.30968719243
Mg   10.51614532071   -2.10322906414   -6.30968719243
Mg    2.10322906414  -10.51614532071   -6.30968719243
Mg   -2.10322906414  -10.51614532071   -6.30968719243
Mg  -10.51614532071   -2.10322906414   -6.30968719243
Mg   -6.30968719243    2.10322906414  -10.51614532071
Mg   -2.10322906414    6.30968719243  -10.51614532071
Mg    2.10322906414    6.30968719243  -10.51614532071
Mg    6.30968719243    2.10322906414  -10.51614532071
Mg    6.30968719243   -2.10322906414  -10.51614532071
Mg    2.10322906414   -6.30968719243  -10.51614532071
Mg   -2.10322906414   -6.30968719243  -10.51614532071
Mg   -6.30968719243   -2.10322906414  -10.51614532071
Mg   -2.10322906414    0.00000000000   12.61937438485
Mg    0.00000000000    2.10322906414   12.61937438485
Mg    2.10322906414    0.00000000000   12.61937438485
Mg    0.00000000000   -2.10322906414   12.61937438485
Mg  -12.61937438485    0.00000000000    2.10322906414
Mg    0.00000000000   12.61937438485    2.10322906414
Mg   12.61937438485    0.00000000000    2.10322906414
Mg    0.00000000000  -12.61937438485    2.10322906414
Mg  -12.61937438485    2.10322906414    0.00000000000
Mg   -2.10322906414   12.61937438485    0.00000000000
Mg    2.10322906414   12.61937438485    0.00000000000
Mg   12.61937438485    2.10322906414    0.00000000000
Mg   12.61937438485   -2.10322906414    0.00000000000
Mg    2.10322906414  -12.61937438485    0.00000000000
Mg   -2.10322906414  -12.61937438485    0.00000000000
Mg  -12.61937438485   -2.10322906414    0.00000000000
Mg  -12.61937438485    0.00000000000   -2.10322906414
Mg    0.00000000000   12.61937438485   -2.10322906414
Mg   12.61937438485    0.00000000000   -2.10322906414
Mg    0.00000000000  -12.61937438485   -2.10322906414
Mg   -2.10322906414    0.00000000000  -12.61937438485
Mg    0.00000000000    2.10322906414  -12.61937438485
Mg    2.10322906414    0.00000000000  -12.61937438485
Mg    0.00000000000   -2.10322906414  -12.61937438485
Mg   -4.20645812828    2.10322906414   12.61937438485
Mg   -2.10322906414    4.20645812828   12.61937438485
Mg    2.10322906414    4.20645812828   12.61937438485
Mg    4.20645812828    2.10322906414   12.61937438485
Mg    4.20645812828   -2.10322906414   12.61937438485
Mg    2.10322906414   -4.20645812828   12.61937438485
Mg   -2.10322906414   -4.20645812828   12.61937438485
Mg   -4.20645812828   -2.10322906414   12.61937438485
Mg  -12.61937438485    2.10322906414    4.20645812828
Mg   -2.10322906414   12.61937438485    4.20645812828
Mg    2.10322906414   12.61937438485    4.20645812828
Mg   12.61937438485    2.10322906414    4.20645812828
Mg   12.61937438485   -2.10322906414    4.20645812828
Mg    2.10322906414  -12.61937438485    4.20645812828
Mg   -2.10322906414  -12.61937438485    4.20645812828
Mg  -12.61937438485   -2.10322906414    4.20645812828
Mg  -12.61937438485    4.20645812828    2.10322906414
Mg   -4.20645812828   12.61937438485    2.10322906414
Mg    4.20645812828   12.61937438485    2.10322906414
Mg   12.61937438485    4.20645812828    2.10322906414
Mg   12.61937438485   -4.20645812828    2.10322906414
Mg    4.20645812828  -12.61937438485    2.10322906414
Mg   -4.20645812828  -12.61937438485    2.10322906414
Mg  -12.61937438485   -4.20645812828    2.10322906414
Mg  -12.61937438485    4.20645812828   -2.10322906414
Mg   -4.20645812828   12.61937438485   -2.10322906414
Mg    4.20645812828   12.61937438485   -2.10322906414
Mg   12.61937438485    4.20645812828   -2.10322906414
Mg   12.61937438485   -4.20645812828   -2.10322906414
Mg    4.20645812828  -12.61937438485   -2.10322906414
Mg   -4.20645812828  -12.61937438485   -2.10322906414
Mg  -12.61937438485   -4.20645812828   -2.10322906414
Mg  -12.61937438485    2.10322906414   -4.20645812828
Mg   -2.10322906414   12.61937438485   -4.20645812828
Mg    2.10322906414   12.61937438485   -4.20645812828
Mg   12.61937438485    2.10322906414   -4.20645812828
Mg   12.61937438485   -2.10322906414   -4.20645812828
Mg    2.10322906414  -12.61937438485   -4.20645812828
Mg   -2.10322906414  -12.61937438485   -4.20645812828
Mg  -12.61937438485   -2.10322906414   -4.20645812828
Mg   -4.20645812828    2.10322906414  -12.61937438485
Mg   -2.10322906414    4.20645812828  -12.61937438485
Mg    2.10322906414    4.20645812828  -12.61937438485
Mg    4.20645812828    2.10322906414  -12.61937438485
Mg    4.20645812828   -2.10322906414  -12.61937438485
Mg    2.10322906414   -4.20645812828  -12.61937438485
Mg   -2.10322906414   -4.20645812828  -12.61937438485
Mg   -4.20645812828   -2.10322906414  -12.61937438485

ghost=serialno
1

qmmm=Amber
pointcharges
12032
      0.00000000000    0.00000000000    6.30968719243    2.00000000000
     -4.20645812828    2.10322906414    4.20645812828    2.00000000000
     -2.10322906414    4.20645812828    4.20645812828    2.00000000000
      2.10322906414    4.20645812828    4.20645812828    2.00000000000
      4.20645812828    2.10322906414    4.20645812828    2.00000000000
      4.20645812828   -2.10322906414    4.20645812828    2.00000000000
      2.10322906414   -4.20645812828    4.20645812828    2.00000000000
     -2.10322906414   -4.20645812828    4.20645812828    2.00000000000
     -4.20645812828   -2.10322906414    4.20645812828    2.00000000000
     -4.20645812828    4.20645812828    2.10322906414    2.00000000000
      4.20645812828    4.20645812828    2.10322906414    2.00000000000
      4.20645812828   -4.20645812828    2.10322906414    2.00000000000
     -4.20645812828   -4.20645812828    2.10322906414    2.00000000000
     -6.30968719243    0.00000000000    0.00000000000    2.00000000000
      0.00000000000    6.30968719243    0.00000000000    2.00000000000
      6.30968719243    0.00000000000    0.00000000000    2.00000000000
      0.00000000000   -6.30968719243    0.00000000000    2.00000000000
     -4.20645812828    4.20645812828   -2.10322906414    2.00000000000
      4.20645812828    4.20645812828   -2.10322906414    2.00000000000
      4.20645812828   -4.20645812828   -2.10322906414    2.00000000000
     -4.20645812828   -4.20645812828   -2.10322906414    2.00000000000
     -4.20645812828    2.10322906414   -4.20645812828    2.00000000000
     -2.10322906414    4.20645812828   -4.20645812828    2.00000000000
      2.10322906414    4.20645812828   -4.20645812828    2.00000000000
      4.20645812828    2.10322906414   -4.20645812828    2.00000000000
      4.20645812828   -2.10322906414   -4.20645812828    2.00000000000
      2.10322906414   -4.20645812828   -4.20645812828    2.00000000000
     -2.10322906414   -4.20645812828   -4.20645812828    2.00000000000
     -4.20645812828   -2.10322906414   -4.20645812828    2.00000000000
      0.00000000000    0.00000000000   -6.30968719243    2.00000000000
     -2.10322906414    2.10322906414    6.30968719243    2.00000000000
      2.10322906414    2.10322906414    6.30968719243    2.00000000000
      2.10322906414   -2.10322906414    6.30968719243    2.00000000000
     -2.10322906414   -2.10322906414    6.30968719243    2.00000000000
     -6.30968719243    2.10322906414    2.10322906414    2.00000000000
     -2.10322906414    6.30968719243    2.10322906414    2.00000000000
      2.10322906414    6.30968719243    2.10322906414    2.00000000000
      6.30968719243    2.10322906414    2.10322906414    2.00000000000
      6.30968719243   -2.10322906414    2.10322906414    2.00000000000
      2.10322906414   -6.30968719243    2.10322906414    2.00000000000
     -2.10322906414   -6.30968719243    2.10322906414    2.00000000000
     -6.30968719243   -2.10322906414    2.10322906414    2.00000000000
     -6.30968719243    2.10322906414   -2.10322906414    2.00000000000
     -2.10322906414    6.30968719243   -2.10322906414    2.00000000000
      2.10322906414    6.30968719243   -2.10322906414    2.00000000000
      6.30968719243    2.10322906414   -2.10322906414    2.00000000000
      6.30968719243   -2.10322906414   -2.10322906414    2.00000000000
      2.10322906414   -6.30968719243   -2.10322906414    2.00000000000
     -2.10322906414   -6.30968719243   -2.10322906414    2.00000000000
     -6.30968719243   -2.10322906414   -2.10322906414    2.00000000000
     -2.10322906414    2.10322906414   -6.30968719243    2.00000000000
      2.10322906414    2.10322906414   -6.30968719243    2.00000000000
      2.10322906414   -2.10322906414   -6.30968719243    2.00000000000
     -2.10322906414   -2.10322906414   -6.30968719243    2.00000000000
     -4.20645812828    4.20645812828    4.20645812828   -2.00000000000
      4.20645812828    4.20645812828    4.20645812828   -2.00000000000
      4.20645812828   -4.20645812828    4.20645812828   -2.00000000000
     -4.20645812828   -4.20645812828    4.20645812828   -2.00000000000
     -4.20645812828    4.20645812828   -4.20645812828   -2.00000000000
      4.20645812828    4.20645812828   -4.20645812828   -2.00000000000
      4.20645812828   -4.20645812828   -4.20645812828   -2.00000000000
     -4.20645812828   -4.20645812828   -4.20645812828   -2.00000000000
     -4.20645812828    0.00000000000    6.30968719243    2.00000000000
      0.00000000000    4.20645812828    6.30968719243    2.00000000000
      4.20645812828    0.00000000000    6.30968719243    2.00000000000
      0.00000000000   -4.20645812828    6.30968719243    2.00000000000
     -6.30968719243    0.00000000000    4.20645812828    2.00000000000
      0.00000000000    6.30968719243    4.20645812828    2.00000000000
      6.30968719243    0.00000000000    4.20645812828    2.00000000000
      0.00000000000   -6.30968719243    4.20645812828    2.00000000000
     -6.30968719243    4.20645812828    0.00000000000    2.00000000000
     -4.20645812828    6.30968719243    0.00000000000    2.00000000000
      4.20645812828    6.30968719243    0.00000000000    2.00000000000
      6.30968719243    4.20645812828    0.00000000000    2.00000000000
      6.30968719243   -4.20645812828    0.00000000000    2.00000000000
      4.20645812828   -6.30968719243    0.00000000000    2.00000000000
     -4.20645812828   -6.30968719243    0.00000000000    2.00000000000
     -6.30968719243   -4.20645812828    0.00000000000    2.00000000000
     -6.30968719243    0.00000000000   -4.20645812828    2.00000000000
      0.00000000000    6.30968719243   -4.20645812828    2.00000000000
      6.30968719243    0.00000000000   -4.20645812828    2.00000000000
      0.00000000000   -6.30968719243   -4.20645812828    2.00000000000
     -4.20645812828    0.00000000000   -6.30968719243    2.00000000000
      0.00000000000    4.20645812828   -6.30968719243    2.00000000000
      4.20645812828    0.00000000000   -6.30968719243    2.00000000000
      0.00000000000   -4.20645812828   -6.30968719243    2.00000000000
     -4.20645812828    2.10322906414    6.30968719243   -2.00000000000
     -2.10322906414    4.20645812828    6.30968719243   -2.00000000000
      2.10322906414    4.20645812828    6.30968719243   -2.00000000000
      4.20645812828    2.10322906414    6.30968719243   -2.00000000000
      4.20645812828   -2.10322906414    6.30968719243   -2.00000000000
      2.10322906414   -4.20645812828    6.30968719243   -2.00000000000
     -2.10322906414   -4.20645812828    6.30968719243   -2.00000000000
     -4.20645812828   -2.10322906414    6.30968719243   -2.00000000000
     -6.30968719243    2.10322906414    4.20645812828   -2.00000000000
     -2.10322906414    6.30968719243    4.20645812828   -2.00000000000
      2.10322906414    6.30968719243    4.20645812828   -2.00000000000
      6.30968719243    2.10322906414    4.20645812828   -2.00000000000
      6.30968719243   -2.10322906414    4.20645812828   -2.00000000000
      2.10322906414   -6.30968719243    4.20645812828   -2.00000000000
     -2.10322906414   -6.30968719243    4.20645812828   -2.00000000000
     -6.30968719243   -2.10322906414    4.20645812828   -2.00000000000
     -6.30968719243    4.20645812828    2.10322906414   -2.00000000000
     -4.20645812828    6.30968719243    2.10322906414   -2.00000000000
      4.20645812828    6.30968719243    2.10322906414   -2.00000000000
      6.30968719243    4.20645812828    2.10322906414   -2.00000000000
      6.30968719243   -4.20645812828    2.10322906414   -2.00000000000
      4.20645812828   -6.30968719243    2.10322906414   -2.00000000000
     -4.20645812828   -6.30968719243    2.10322906414   -2.00000000000
     -6.30968719243   -4.20645812828    2.10322906414   -2.00000000000
     -6.30968719243    4.20645812828   -2.10322906414   -2.00000000000
     -4.20645812828    6.30968719243   -2.10322906414   -2.00000000000
      4.20645812828    6.30968719243   -2.10322906414   -2.00000000000
      6.30968719243    4.20645812828   -2.10322906414   -2.00000000000
      6.30968719243   -4.20645812828   -2.10322906414   -2.00000000000
      4.20645812828   -6.30968719243   -2.10322906414   -2.00000000000
     -4.20645812828   -6.30968719243   -2.10322906414   -2.00000000000
     -6.30968719243   -4.20645812828   -2.10322906414   -2.00000000000
     -6.30968719243    2.10322906414   -4.20645812828   -2.00000000000
     -2.10322906414    6.30968719243   -4.20645812828   -2.00000000000
      2.10322906414    6.30968719243   -4.20645812828   -2.00000000000
      6.30968719243    2.10322906414   -4.20645812828   -2.00000000000
      6.30968719243   -2.10322906414   -4.20645812828   -2.00000000000
      2.10322906414   -6.30968719243   -4.20645812828   -2.00000000000
     -2.10322906414   -6.30968719243   -4.20645812828   -2.00000000000
     -6.30968719243   -2.10322906414   -4.20645812828   -2.00000000000
     -4.20645812828    2.10322906414   -6.30968719243   -2.00000000000
     -2.10322906414    4.20645812828   -6.30968719243   -2.00000000000
      2.10322906414    4.20645812828   -6.30968719243   -2.00000000000
      4.20645812828    2.10322906414   -6.30968719243   -2.00000000000
      4.20645812828   -2.10322906414   -6.30968719243   -2.00000000000
      2.10322906414   -4.20645812828   -6.30968719243   -2.00000000000
     -2.10322906414   -4.20645812828   -6.30968719243   -2.00000000000
     -4.20645812828   -2.10322906414   -6.30968719243   -2.00000000000
      0.00000000000    0.00000000000    8.41291625657   -2.00000000000
     -8.41291625657    0.00000000000    0.00000000000   -2.00000000000
      0.00000000000    8.41291625657    0.00000000000   -2.00000000000
      8.41291625657    0.00000000000    0.00000000000   -2.00000000000
      0.00000000000   -8.41291625657    0.00000000000   -2.00000000000
      0.00000000000    0.00000000000   -8.41291625657   -2.00000000000
     -2.10322906414    0.00000000000    8.41291625657    2.00000000000
      0.00000000000    2.10322906414    8.41291625657    2.00000000000
      2.10322906414    0.00000000000    8.41291625657    2.00000000000
      0.00000000000   -2.10322906414    8.41291625657    2.00000000000
     -4.20645812828    4.20645812828    6.30968719243    2.00000000000
      4.20645812828    4.20645812828    6.30968719243    2.00000000000
      4.20645812828   -4.20645812828    6.30968719243    2.00000000000
     -4.20645812828   -4.20645812828    6.30968719243    2.00000000000
     -6.30968719243    4.20645812828    4.20645812828    2.00000000000
     -4.20645812828    6.30968719243    4.20645812828    2.00000000000
      4.20645812828    6.30968719243    4.20645812828    2.00000000000
      6.30968719243    4.20645812828    4.20645812828    2.00000000000
      6.30968719243   -4.20645812828    4.20645812828    2.00000000000
      4.20645812828   -6.30968719243    4.20645812828    2.00000000000
     -4.20645812828   -6.30968719243    4.20645812828    2.00000000000
     -6.30968719243   -4.20645812828    4.20645812828    2.00000000000
     -8.41291625657    0.00000000000    2.10322906414    2.00000000000
      0.00000000000    8.41291625657    2.10322906414    2.00000000000
      8.41291625657    0.00000000000    2.10322906414    2.00000000000
      0.00000000000   -8.41291625657    2.10322906414    2.00000000000
     -8.41291625657    2.10322906414    0.00000000000    2.00000000000
     -2.10322906414    8.41291625657    0.00000000000    2.00000000000
      2.10322906414    8.41291625657    0.00000000000    2.00000000000
      8.41291625657    2.10322906414    0.00000000000    2.00000000000
      8.41291625657   -2.10322906414    0.00000000000    2.00000000000
      2.10322906414   -8.41291625657    0.00000000000    2.00000000000
     -2.10322906414   -8.41291625657    0.00000000000    2.00000000000
     -8.41291625657   -2.10322906414    0.00000000000    2.00000000000
     -8.41291625657    0.00000000000   -2.10322906414    2.00000000000
      0.00000000000    8.41291625657   -2.10322906414    2.00000000000
      8.41291625657    0.00000000000   -2.10322906414    2.00000000000
      0.00000000000   -8.41291625657   -2.10322906414    2.00000000000
     -6.30968719243    4.20645812828   -4.20645812828    2.00000000000
     -4.20645812828    6.30968719243   -4.20645812828    2.00000000000
      4.20645812828    6.30968719243   -4.20645812828    2.00000000000
      6.30968719243    4.20645812828   -4.20645812828    2.00000000000
      6.30968719243   -4.20645812828   -4.20645812828    2.00000000000
      4.20645812828   -6.30968719243   -4.20645812828    2.00000000000
     -4.20645812828   -6.30968719243   -4.20645812828    2.00000000000
     -6.30968719243   -4.20645812828   -4.20645812828    2.00000000000
     -4.20645812828    4.20645812828   -6.30968719243    2.00000000000
      4.20645812828    4.20645812828   -6.30968719243    2.00000000000
      4.20645812828   -4.20645812828   -6.30968719243    2.00000000000
     -4.20645812828   -4.20645812828   -6.30968719243    2.00000000000
     -2.10322906414    0.00000000000   -8.41291625657    2.00000000000
      0.00000000000    2.10322906414   -8.41291625657    2.00000000000
      2.10322906414    0.00000000000   -8.41291625657    2.00000000000
      0.00000000000   -2.10322906414   -8.41291625657    2.00000000000
     -2.10322906414    2.10322906414    8.41291625657   -2.00000000000
      2.10322906414    2.10322906414    8.41291625657   -2.00000000000
      2.10322906414   -2.10322906414    8.41291625657   -2.00000000000
     -2.10322906414   -2.10322906414    8.41291625657   -2.00000000000
     -6.30968719243    0.00000000000    6.30968719243   -2.00000000000
      0.00000000000    6.30968719243    6.30968719243   -2.00000000000
      6.30968719243    0.00000000000    6.30968719243   -2.00000000000
      0.00000000000   -6.30968719243    6.30968719243   -2.00000000000
     -8.41291625657    2.10322906414    2.10322906414   -2.00000000000
     -2.10322906414    8.41291625657    2.10322906414   -2.00000000000
      2.10322906414    8.41291625657    2.10322906414   -2.00000000000
      8.41291625657    2.10322906414    2.10322906414   -2.00000000000
      8.41291625657   -2.10322906414    2.10322906414   -2.00000000000
      2.10322906414   -8.41291625657    2.10322906414   -2.00000000000
     -2.10322906414   -8.41291625657    2.10322906414   -2.00000000000
     -8.41291625657   -2.10322906414    2.10322906414   -2.00000000000
     -6.30968719243    6.30968719243    0.00000000000   -2.00000000000
      6.30968719243    6.30968719243    0.00000000000   -2.00000000000
      6.30968719243   -6.30968719243    0.00000000000   -2.00000000000
     -6.30968719243   -6.30968719243    0.00000000000   -2.00000000000
     -8.41291625657    2.10322906414   -2.10322906414   -2.00000000000
     -2.10322906414    8.41291625657   -2.10322906414   -2.00000000000
      2.10322906414    8.41291625657   -2.10322906414   -2.00000000000
      8.41291625657    2.10322906414   -2.10322906414   -2.00000000000
      8.41291625657   -2.10322906414   -2.10322906414   -2.00000000000
      2.10322906414   -8.41291625657   -2.10322906414   -2.00000000000
     -2.10322906414   -8.41291625657   -2.10322906414   -2.00000000000
     -8.41291625657   -2.10322906414   -2.10322906414   -2.00000000000
     -6.30968719243    0.00000000000   -6.30968719243   -2.00000000000
      0.00000000000    6.30968719243   -6.30968719243   -2.00000000000
      6.30968719243    0.00000000000   -6.30968719243   -2.00000000000
      0.00000000000   -6.30968719243   -6.30968719243   -2.00000000000
     -2.10322906414    2.10322906414   -8.41291625657   -2.00000000000
      2.10322906414    2.10322906414   -8.41291625657   -2.00000000000
      2.10322906414   -2.10322906414   -8.41291625657   -2.00000000000
     -2.10322906414   -2.10322906414   -8.41291625657   -2.00000000000
     -6.30968719243    2.10322906414    6.30968719243    2.00000000000
     -2.10322906414    6.30968719243    6.30968719243    2.00000000000
      2.10322906414    6.30968719243    6.30968719243    2.00000000000
      6.30968719243    2.10322906414    6.30968719243    2.00000000000
      6.30968719243   -2.10322906414    6.30968719243    2.00000000000
      2.10322906414   -6.30968719243    6.30968719243    2.00000000000
     -2.10322906414   -6.30968719243    6.30968719243    2.00000000000
     -6.30968719243   -2.10322906414    6.30968719243    2.00000000000
     -6.30968719243    6.30968719243    2.10322906414    2.00000000000
      6.30968719243    6.30968719243    2.10322906414    2.00000000000
      6.30968719243   -6.30968719243    2.10322906414    2.00000000000
     -6.30968719243   -6.30968719243    2.10322906414    2.00000000000
     -6.30968719243    6.30968719243   -2.10322906414    2.00000000000
      6.30968719243    6.30968719243   -2.10322906414    2.00000000000
      6.30968719243   -6.30968719243   -2.10322906414    2.00000000000
     -6.30968719243   -6.30968719243   -2.10322906414    2.00000000000
     -6.30968719243    2.10322906414   -6.30968719243    2.00000000000
     -2.10322906414    6.30968719243   -6.30968719243    2.00000000000
      2.10322906414    6.30968719243   -6.30968719243    2.00000000000
      6.30968719243    2.10322906414   -6.30968719243    2.00000000000
      6.30968719243   -2.10322906414   -6.30968719243    2.00000000000
      2.10322906414   -6.30968719243   -6.30968719243    2.00000000000
     -2.10322906414   -6.30968719243   -6.30968719243    2.00000000000
     -6.30968719243   -2.10322906414   -6.30968719243    2.00000000000
     -4.20645812828    0.00000000000    8.41291625657   -2.00000000000
      0.00000000000    4.20645812828    8.41291625657   -2.00000000000
      4.20645812828    0.00000000000    8.41291625657   -2.00000000000
      0.00000000000   -4.20645812828    8.41291625657   -2.00000000000
     -8.41291625657    0.00000000000    4.20645812828   -2.00000000000
      0.00000000000    8.41291625657    4.20645812828   -2.00000000000
      8.41291625657    0.00000000000    4.20645812828   -2.00000000000
      0.00000000000   -8.41291625657    4.20645812828   -2.00000000000
     -8.41291625657    4.20645812828    0.00000000000   -2.00000000000
     -4.20645812828    8.41291625657    0.00000000000   -2.00000000000
      4.20645812828    8.41291625657    0.00000000000   -2.00000000000
      8.41291625657    4.20645812828    0.00000000000   -2.00000000000
      8.41291625657   -4.20645812828    0.00000000000   -2.00000000000
      4.20645812828   -8.41291625657    0.00000000000   -2.00000000000
     -4.20645812828   -8.41291625657    0.00000000000   -2.00000000000
     -8.41291625657   -4.20645812828    0.00000000000   -2.00000000000
     -8.41291625657    0.00000000000   -4.20645812828   -2.00000000000
      0.00000000000    8.41291625657   -4.20645812828   -2.00000000000
      8.41291625657    0.00000000000   -4.20645812828   -2.00000000000
      0.00000000000   -8.41291625657   -4.20645812828   -2.00000000000
     -4.20645812828    0.00000000000   -8.41291625657   -2.00000000000
      0.00000000000    4.20645812828   -8.41291625657   -2.00000000000
      4.20645812828    0.00000000000   -8.41291625657   -2.00000000000
      0.00000000000   -4.20645812828   -8.41291625657   -2.00000000000
     -4.20645812828    2.10322906414    8.41291625657    2.00000000000
     -2.10322906414    4.20645812828    8.41291625657    2.00000000000
      2.10322906414    4.20645812828    8.41291625657    2.00000000000
      4.20645812828    2.10322906414    8.41291625657    2.00000000000
      4.20645812828   -2.10322906414    8.41291625657    2.00000000000
      2.10322906414   -4.20645812828    8.41291625657    2.00000000000
     -2.10322906414   -4.20645812828    8.41291625657    2.00000000000
     -4.20645812828   -2.10322906414    8.41291625657    2.00000000000
     -8.41291625657    2.10322906414    4.20645812828    2.00000000000
     -2.10322906414    8.41291625657    4.20645812828    2.00000000000
      2.10322906414    8.41291625657    4.20645812828    2.00000000000
      8.41291625657    2.10322906414    4.20645812828    2.00000000000
      8.41291625657   -2.10322906414    4.20645812828    2.00000000000
      2.10322906414   -8.41291625657    4.20645812828    2.00000000000
     -2.10322906414   -8.41291625657    4.20645812828    2.00000000000
     -8.41291625657   -2.10322906414    4.20645812828    2.00000000000
     -8.41291625657    4.20645812828    2.10322906414    2.00000000000
     -4.20645812828    8.41291625657    2.10322906414    2.00000000000
      4.20645812828    8.41291625657    2.10322906414    2.00000000000
      8.41291625657    4.20645812828    2.10322906414    2.00000000000
      8.41291625657   -4.20645812828    2.10322906414    2.00000000000
      4.20645812828   -8.41291625657    2.10322906414    2.00000000000
     -4.20645812828   -8.41291625657    2.10322906414    2.00000000000
     -8.41291625657   -4.20645812828    2.10322906414    2.00000000000
     -8.41291625657    4.20645812828   -2.10322906414    2.00000000000
     -4.20645812828    8.41291625657   -2.10322906414    2.00000000000
      4.20645812828    8.41291625657   -2.10322906414    2.00000000000
      8.41291625657    4.20645812828   -2.10322906414    2.00000000000
      8.41291625657   -4.20645812828   -2.10322906414    2.00000000000
      4.20645812828   -8.41291625657   -2.10322906414    2.00000000000
     -4.20645812828   -8.41291625657   -2.10322906414    2.00000000000
     -8.41291625657   -4.20645812828   -2.10322906414    2.00000000000
     -8.41291625657    2.10322906414   -4.20645812828    2.00000000000
     -2.10322906414    8.41291625657   -4.20645812828    2.00000000000
      2.10322906414    8.41291625657   -4.20645812828    2.00000000000
      8.41291625657    2.10322906414   -4.20645812828    2.00000000000
      8.41291625657   -2.10322906414   -4.20645812828    2.00000000000
      2.10322906414   -8.41291625657   -4.20645812828    2.00000000000
     -2.10322906414   -8.41291625657   -4.20645812828    2.00000000000
     -8.41291625657   -2.10322906414   -4.20645812828    2.00000000000
     -4.20645812828    2.10322906414   -8.41291625657    2.00000000000
     -2.10322906414    4.20645812828   -8.41291625657    2.00000000000
      2.10322906414    4.20645812828   -8.41291625657    2.00000000000
      4.20645812828    2.10322906414   -8.41291625657    2.00000000000
      4.20645812828   -2.10322906414   -8.41291625657    2.00000000000
      2.10322906414   -4.20645812828   -8.41291625657    2.00000000000
     -2.10322906414   -4.20645812828   -8.41291625657    2.00000000000
     -4.20645812828   -2.10322906414   -8.41291625657    2.00000000000
     -6.30968719243    4.20645812828    6.30968719243   -2.00000000000
     -4.20645812828    6.30968719243    6.30968719243   -2.00000000000
      4.20645812828    6.30968719243    6.30968719243   -2.00000000000
      6.30968719243    4.20645812828    6.30968719243   -2.00000000000
      6.30968719243   -4.20645812828    6.30968719243   -2.00000000000
      4.20645812828   -6.30968719243    6.30968719243   -2.00000000000
     -4.20645812828   -6.30968719243    6.30968719243   -2.00000000000
     -6.30968719243   -4.20645812828    6.30968719243   -2.00000000000
     -6.30968719243    6.30968719243    4.20645812828   -2.00000000000
      6.30968719243    6.30968719243    4.20645812828   -2.00000000000
      6.30968719243   -6.30968719243    4.20645812828   -2.00000000000
     -6.30968719243   -6.30968719243    4.20645812828   -2.00000000000
     -6.30968719243    6.30968719243   -4.20645812828   -2.00000000000
      6.30968719243    6.30968719243   -4.20645812828   -2.00000000000
      6.30968719243   -6.30968719243   -4.20645812828   -2.00000000000
     -6.30968719243   -6.30968719243   -4.20645812828   -2.00000000000
     -6.30968719243    4.20645812828   -6.30968719243   -2.00000000000
     -4.20645812828    6.30968719243   -6.30968719243   -2.00000000000
      4.20645812828    6.30968719243   -6.30968719243   -2.00000000000
      6.30968719243    4.20645812828   -6.30968719243   -2.00000000000
      6.30968719243   -4.20645812828   -6.30968719243   -2.00000000000
      4.20645812828   -6.30968719243   -6.30968719243   -2.00000000000
     -4.20645812828   -6.30968719243   -6.30968719243   -2.00000000000
     -6.30968719243   -4.20645812828   -6.30968719243   -2.00000000000
     -4.20645812828    4.20645812828    8.41291625657   -2.00000000000
      4.20645812828    4.20645812828    8.41291625657   -2.00000000000
      4.20645812828   -4.20645812828    8.41291625657   -2.00000000000
     -4.20645812828   -4.20645812828    8.41291625657   -2.00000000000
     -8.41291625657    4.20645812828    4.20645812828   -2.00000000000
     -4.20645812828    8.41291625657    4.20645812828   -2.00000000000
      4.20645812828    8.41291625657    4.20645812828   -2.00000000000
      8.41291625657    4.20645812828    4.20645812828   -2.00000000000
      8.41291625657   -4.20645812828    4.20645812828   -2.00000000000
      4.20645812828   -8.41291625657    4.20645812828   -2.00000000000
     -4.20645812828   -8.41291625657    4.20645812828   -2.00000000000
     -8.41291625657   -4.20645812828    4.20645812828   -2.00000000000
[...]
 6410   A         18.571864      18.571864
 6411   A         18.572823      18.572823
 6412   A         18.572823      18.572823
 6413   A         18.572823      18.572823
 6414   A         18.573752      18.573752
 6415   A         18.573752      18.573752
 6416   A         18.574504      18.574504
 6417   A         18.574504      18.574504
 6418   A         18.574505      18.574505
 6419   A         18.575487      18.575487
 6420   A         18.578884      18.578884
 6421   A         18.578884      18.578884
 6422   A         18.578956      18.578956
 6423   A         18.582788      18.582788
 6424   A         18.582788      18.582788
 6425   A         18.582788      18.582788
 6426   A         18.584617      18.584617
 6427   A         18.584617      18.584617
 6428   A         18.584617      18.584617
 6429   A         18.585510      18.585510
 6430   A         18.585511      18.585511
 6431   A         18.585511      18.585511
 6432   A         18.593719      18.593719
 6433   A         18.593719      18.593719
 6434   A         18.593719      18.593719
 6435   A         18.597569      18.597569
 6436   A         18.597569      18.597569
 6437   A         18.597569      18.597569
 6438   A         18.600148      18.600148
 6439   A         18.600148      18.600148
 6440   A         18.605261      18.605261
 6441   A         18.605261      18.605261
 6442   A         18.605261      18.605261
 6443   A         19.156203      19.156203
 6444   A         19.187927      19.187927
 6445   A         19.189417      19.189417
 6446   A         19.189418      19.189418
 6447   A         19.189418      19.189418
 6448   A         19.194202      19.194202
 6449   A         19.194202      19.194202
 6450   A         19.194202      19.194202
 6451   A         19.196304      19.196304
 6452   A         19.198240      19.198240
 6453   A         19.198240      19.198240
 6454   A         19.212325      19.212325
 6455   A         19.212325      19.212325
 6456   A         19.219081      19.219081
 6457   A         19.219081      19.219081
 6458   A         19.219081      19.219081
 6459   A         19.224303      19.224303
 6460   A         19.224303      19.224303
 6461   A         19.224304      19.224304
 6462   A         19.230183      19.230183
 6463   A         19.230183      19.230183
 6464   A         19.234361      19.234361
 6465   A         19.234363      19.234363
 6466   A         19.234364      19.234364
 6467   A         19.241496      19.241496
 6468   A         19.241496      19.241496
 6469   A         19.241496      19.241496
 6470   A         19.247975      19.247975
 6471   A         19.247976      19.247976
 6472   A         19.247976      19.247976
 6473   A         19.248434      19.248434
 6474   A         19.248434      19.248434
 6475   A         19.248434      19.248434
 6476   A         19.257980      19.257980
 6477   A         19.257981      19.257981
 6478   A         19.257981      19.257981
 6479   A         19.274113      19.274113
 6480   A         19.274114      19.274114
 6481   A         19.276984      19.276984
 6482   A         19.277572      19.277572
 6483   A         19.277572      19.277572
 6484   A         19.277572      19.277572
 6485   A         19.280335      19.280335
 6486   A         19.280335      19.280335
 6487   A         19.280335      19.280335
 6488   A         19.282367      19.282367
 6489   A         19.282367      19.282367
 6490   A         19.282367      19.282367
 6491   A         19.289950      19.289950
 6492   A         19.297503      19.297503
 6493   A         19.297504      19.297504
 6494   A         19.297504      19.297504
 6495   A         19.298186      19.298186
 6496   A         19.298186      19.298186
 6497   A         19.298186      19.298186
 6498   A         19.306760      19.306760
 6499   A         19.316940      19.316940
 6500   A         19.316940      19.316940
 6501   A         19.316941      19.316941
 6502   A         19.318019      19.318019
 6503   A         19.318020      19.318020
 6504   A         19.321278      19.321278
 6505   A         19.321278      19.321278
 6506   A         19.321278      19.321278
 6507   A         19.325370      19.325370
 6508   A         19.325371      19.325371
 6509   A         19.338512      19.338512
 6510   A         19.338512      19.338512
 6511   A         19.339943      19.339943
 6512   A         19.339943      19.339943
 6513   A         19.339943      19.339943
 6514   A         19.339972      19.339972
 6515   A         19.339973      19.339973
 6516   A         19.339973      19.339973
 6517   A         19.344680      19.344680
 6518   A         19.344680      19.344680
 6519   A         19.344680      19.344680
 6520   A         19.349700      19.349700
 6521   A         19.349700      19.349700
 6522   A         19.349701      19.349701
 6523   A         19.351558      19.351558
 6524   A         19.351559      19.351559
 6525   A         19.351559      19.351559
 6526   A         19.358664      19.358664
 6527   A         19.358664      19.358664
 6528   A         19.358664      19.358664
 6529   A         19.365120      19.365120
 6530   A         19.365120      19.365120
 6531   A         19.385283      19.385283
 6532   A         19.387533      19.387533
 6533   A         19.387533      19.387533
 6534   A         19.387700      19.387700
 6535   A         19.387700      19.387700
 6536   A         19.387700      19.387700
 6537   A         19.388063      19.388063
 6538   A         19.395135      19.395135
 6539   A         19.395135      19.395135
 6540   A         19.395135      19.395135
 6541   A         19.400720      19.400720
 6542   A         19.400720      19.400720
 6543   A         19.400720      19.400720
 6544   A         19.408479      19.408479
 6545   A         19.408479      19.408479
 6546   A         19.408479      19.408479
 6547   A         19.412835      19.412835
 6548   A         19.412835      19.412835
 6549   A         19.422337      19.422337
 6550   A         19.422338      19.422338
 6551   A         19.422338      19.422338
 6552   A         19.426125      19.426125
 6553   A         19.426125      19.426125
 6554   A         19.437406      19.437406
 6555   A         19.441147      19.441147
 6556   A         19.441147      19.441147
 6557   A         19.441147      19.441147
 6558   A         19.451810      19.451810
 6559   A         19.451810      19.451810
 6560   A         19.451811      19.451811
 6561   A         19.454755      19.454755
 6562   A         19.454755      19.454755
 6563   A         19.454756      19.454756
 6564   A         19.464351      19.464351
 6565   A         19.464351      19.464351
 6566   A         19.469657      19.469657
 6567   A         19.469659      19.469659
 6568   A         19.469659      19.469659
 6569   A         19.472998      19.472998
 6570   A         19.472999      19.472999
 6571   A         19.472999      19.472999
 6572   A         19.483053      19.483053
 6573   A         19.483053      19.483053
 6574   A         19.483053      19.483053
 6575   A         19.490818      19.490818
 6576   A         19.490818      19.490818
 6577   A         19.490818      19.490818
 6578   A         19.496894      19.496894
 6579   A         19.496894      19.496894
 6580   A         19.496894      19.496894
 6581   A         19.522988      19.522988
 6582   A         19.522988      19.522988
 6583   A         19.522989      19.522989
 6584   A         19.528025      19.528025
 6585   A         19.528025      19.528025
 6586   A         19.528026      19.528026
 6587   A         19.539152      19.539152
 6588   A         19.539152      19.539152
 6589   A         19.540834      19.540834
 6590   A         19.542957      19.542957
 6591   A         19.542957      19.542957
 6592   A         19.542957      19.542957
 6593   A         19.545631      19.545631
 6594   A         19.575321      19.575321
 6595   A         19.575321      19.575321
 6596   A         19.575321      19.575321
 6597   A         19.578566      19.578566
 6598   A         19.591683      19.591683
 6599   A         19.597408      19.597408
 6600   A         19.597409      19.597409
 6601   A         19.597409      19.597409
 6602   A         19.599533      19.599533
 6603   A         19.599535      19.599535
 6604   A         19.599536      19.599536
 6605   A         19.635402      19.635402
 6606   A         19.635402      19.635402
 6607   A         19.659478      19.659478
 6608   A         19.659478      19.659478
 6609   A         19.659478      19.659478
 6610   A         19.659970      19.659970
 6611   A         19.659971      19.659971
 6612   A         19.660837      19.660837
 6613   A         19.660837      19.660837
 6614   A         19.660837      19.660837
 6615   A         19.670023      19.670023
 6616   A         19.670023      19.670023
 6617   A         19.670023      19.670023
 6618   A         19.688735      19.688735
 6619   A         19.688735      19.688735
 6620   A         19.688735      19.688735
 6621   A         19.734787      19.734787
 6622   A         19.747344      19.747344
 6623   A         19.747344      19.747344
 6624   A         19.747344      19.747344
 6625   A         19.747929      19.747929
 6626   A         19.747931      19.747931
 6627   A         19.770725      19.770725
 6628   A         19.770725      19.770725
 6629   A         19.770725      19.770725
 6630   A         19.803334      19.803334
 6631   A         19.816637      19.816637
 6632   A         19.816638      19.816638
 6633   A         32.086825      32.086825
 6634   A         35.429215      35.429215
 6635   A         35.429215      35.429215
 6636   A         35.429216      35.429216
 6637   A         35.452011      35.452011
 6638   A         35.452012      35.452012
 6639   A         35.513338      35.513338
 6640   A         35.513339      35.513339
 6641   A         35.513339      35.513339
 6642   A         35.583849      35.583849
 6643   A         35.583850      35.583850
 6644   A         35.583852      35.583852
 6645   A         35.601117      35.601117
 6646   A         35.613634      35.613634
 6647   A         35.613634      35.613634
 6648   A         35.613634      35.613634
 6649   A         35.635176      35.635176
 6650   A         35.637183      35.637183
 6651   A         35.637184      35.637184
 6652   A         35.637184      35.637184
 6653   A         35.700397      35.700397
 6654   A         35.700398      35.700398
 6655   A         35.721999      35.721999
 6656   A         35.721999      35.721999
 6657   A         35.722000      35.722000
 6658   A         35.784113      35.784113
 6659   A         35.878686      35.878686
 6660   A         35.878687      35.878687
 6661   A         35.878687      35.878687
 6662   A         35.880923      35.880923
 6663   A         35.880924      35.880924
 6664   A         35.880924      35.880924
 6665   A         35.892544      35.892544
 6666   A         36.077557      36.077557
 6667   A         36.077557      36.077557
 6668   A         36.143540      36.143540
 6669   A         36.143540      36.143540
 6670   A         36.143540      36.143540
 6671   A         36.223900      36.223900
 6672   A         47.314051      47.314051
 6673   A         47.330248      47.330248
 6674   A         47.330248      47.330248
 6675   A         47.330248      47.330248
 6676   A         47.332969      47.332969
 6677   A         47.332969      47.332969
 6678   A         47.332969      47.332969
 6679   A         47.360987      47.360987
 6680   A         47.360987      47.360987
 6681   A         47.369197      47.369197
 6682   A         47.369198      47.369198
 6683   A         47.369198      47.369198
 6684   A         47.391486      47.391486
 6685   A         47.391487      47.391487
 6686   A         47.394035      47.394035
 6687   A         47.394035      47.394035
 6688   A         47.394035      47.394035
 6689   A         47.395212      47.395212
 6690   A         47.395212      47.395212
 6691   A         47.395213      47.395213
 6692   A         47.399565      47.399565
 6693   A         47.399565      47.399565
 6694   A         47.399565      47.399565
 6695   A         47.408654      47.408654
 6696   A         47.428221      47.428221
 6697   A         47.486411      47.486411
 6698   A         47.486411      47.486411
 6699   A         47.486411      47.486411
 6700   A         47.495033      47.495033
 6701   A         47.495033      47.495033
 6702   A         47.495033      47.495033
 6703   A         47.541255      47.541255
 6704   A         47.541255      47.541255
 6705   A         47.546385      47.546385
 6706   A         47.546385      47.546385
 6707   A         47.546385      47.546385
 6708   A         47.552972      47.552972
 6709   A         47.581786      47.581786
 6710   A         47.581786      47.581786
 6711   A         47.581786      47.581786
 6712   A         47.588156      47.588156
 6713   A         47.588157      47.588157
 6714   A         47.658185      47.658185
 6715   A         47.658186      47.658186
 6716   A         47.658186      47.658186
 6717   A         47.659795      47.659795
 6718   A         47.659795      47.659795
 6719   A         47.659795      47.659795
 6720   A         47.671614      47.671614
 6721   A         47.671615      47.671615
 6722   A         47.671615      47.671615
 6723   A         47.671848      47.671848
 6724   A         47.671848      47.671848
 6725   A         47.671848      47.671848
 6726   A         47.693737      47.693737
 6727   A         47.693737      47.693737
 6728   A         47.693738      47.693738
 6729   A         47.703533      47.703533
 6730   A         47.703533      47.703533
 6731   A         47.706913      47.706913
 6732   A         48.000137      48.000137
 6733   A         48.023163      48.023163
 6734   A         48.023164      48.023164
 6735   A         48.023164      48.023164
 6736   A         48.067444      48.067444
 6737   A         48.067444      48.067444
 6738   A         48.406264      48.406264
 6739   A         48.406264      48.406264
 6740   A         48.438860      48.438860
 6741   A         48.438860      48.438860
 6742   A         48.438860      48.438860
 6743   A         48.467216      48.467216
 6744   A         48.467216      48.467216
 6745   A         48.467216      48.467216
 6746   A         48.485592      48.485592
 6747   A         48.526435      48.526435
 6748   A         48.526435      48.526435
 6749   A         48.526435      48.526435
 6750   A         90.828192      90.828192
 6751   A        196.898776     196.898776
 6752   A        196.898776     196.898776
 6753   A        196.898777     196.898777
 6754   A        196.934768     196.934768
 6755   A        196.934768     196.934768
 6756   A        197.046377     197.046377
 6757   A        197.046377     197.046377
 6758   A        197.046377     197.046377
 6759   A        197.170709     197.170709
 6760   A        197.170709     197.170709
 6761   A        197.170709     197.170709
 6762   A        197.192460     197.192460
 6763   A        197.221288     197.221288
 6764   A        197.221288     197.221288
 6765   A        197.221288     197.221288
 6766   A        197.257579     197.257579
 6767   A        197.257579     197.257579
 6768   A        197.257579     197.257579
 6769   A        197.271650     197.271650
 6770   A        197.359559     197.359559
 6771   A        197.359559     197.359559
 6772   A        197.399064     197.399064
 6773   A        197.399064     197.399064
 6774   A        197.399064     197.399064
 6775   A        197.517124     197.517124
 6776   A        197.672988     197.672988
 6777   A        197.672988     197.672988
 6778   A        197.672988     197.672988
 6779   A        197.680587     197.680587
 6780   A        197.680587     197.680587
 6781   A        197.680587     197.680587
 6782   A        197.692577     197.692577
 6783   A        198.014993     198.014993
 6784   A        198.014993     198.014993
 6785   A        198.127994     198.127994
 6786   A        198.127994     198.127994
 6787   A        198.127994     198.127994
 6788   A        198.260447     198.260447
 6789   A        251.812988     251.812988
 6790   A        251.828466     251.828466
 6791   A        251.828466     251.828466
 6792   A        251.828466     251.828466
 6793   A        251.832405     251.832405
 6794   A        251.832405     251.832405
 6795   A        251.832405     251.832405
 6796   A        251.861829     251.861829
 6797   A        251.861830     251.861830
 6798   A        251.870168     251.870168
 6799   A        251.870168     251.870168
 6800   A        251.870169     251.870169
 6801   A        251.897172     251.897172
 6802   A        251.897173     251.897173
 6803   A        251.899277     251.899277
 6804   A        251.899278     251.899278
 6805   A        251.899278     251.899278
 6806   A        251.902646     251.902646
 6807   A        251.902646     251.902646
 6808   A        251.902646     251.902646
 6809   A        251.906323     251.906323
 6810   A        251.906323     251.906323
 6811   A        251.906323     251.906323
 6812   A        251.914024     251.914024
 6813   A        251.938375     251.938375
 6814   A        252.006408     252.006408
 6815   A        252.006408     252.006408
 6816   A        252.006408     252.006408
 6817   A        252.016752     252.016752
 6818   A        252.016752     252.016752
 6819   A        252.016752     252.016752
 6820   A        252.068601     252.068601
 6821   A        252.068601     252.068601
 6822   A        252.073689     252.073689
 6823   A        252.073689     252.073689
 6824   A        252.073689     252.073689
 6825   A        252.084413     252.084413
 6826   A        252.115330     252.115330
 6827   A        252.115330     252.115330
 6828   A        252.115330     252.115330
 6829   A        252.123984     252.123984
 6830   A        252.123984     252.123984
 6831   A        252.203450     252.203450
 6832   A        252.203450     252.203450
 6833   A        252.203450     252.203450
 6834   A        252.204176     252.204176
 6835   A        252.204176     252.204176
 6836   A        252.204177     252.204177
 6837   A        252.217541     252.217541
 6838   A        252.217541     252.217541
 6839   A        252.217541     252.217541
 6840   A        252.218775     252.218775
 6841   A        252.218775     252.218775
 6842   A        252.218776     252.218776
 6843   A        252.242238     252.242238
 6844   A        252.242238     252.242238
 6845   A        252.242239     252.242239
 6846   A        252.252020     252.252020
 6847   A        252.252020     252.252020
 6848   A        252.261220     252.261220
 6849   A        252.586433     252.586433
 6850   A        252.619485     252.619485
 6851   A        252.619486     252.619486
 6852   A        252.619486     252.619486
 6853   A        252.670653     252.670653
 6854   A        252.670653     252.670653
 6855   A        253.047308     253.047308
 6856   A        253.047308     253.047308
 6857   A        253.091029     253.091029
 6858   A        253.091030     253.091030
 6859   A        253.091030     253.091030
 6860   A        253.134425     253.134425
 6861   A        253.134425     253.134425
 6862   A        253.134425     253.134425
 6863   A        253.151017     253.151017
 6864   A        253.202682     253.202682
 6865   A        253.202682     253.202682
 6866   A        253.202682     253.202682
 6867   A        411.595529     411.595529
 
 RETURNING FROM SCF ALGORITHM
 ======================================================================
 
 ************************ 2021-12-02 08:07:53 *************************
                      Normal termination of mrcc.
 **********************************************************************
