 **********************************************************************
                          MRCC program system
 **********************************************************************
 
                              Written by
 Mihaly Kallay, Peter R. Nagy, David Mester, Zoltan Rolik, Gyula Samu,
   Jozsef Csontos, Jozsef Csoka, P. Bernat Szabo, Laszlo Gyevi-Nagy,
    Bence Hegely, Istvan Ladjanszki, Lorant Szegedy, Bence Ladoczki,
       Klara Petrov, Mate Farkas, Pal D. Mezei, and Adam Ganyecz
 
        Department of Physical Chemistry and Materials Science
            Budapest University of Technology and Economics
                  Budapest P.O.Box 91, H-1521 Hungary
 
                              www.mrcc.hu
 
                    Release date: February 22, 2020

 ************************ 2021-11-04 08:32:18 *************************
 Executing minp...

 Reading input from MINP...
 
 Input file:
 
calc=LNO-CCSD(T)
scftype=rhf
verbosity=3
mem=470GB
symm=off
unit=angs
scfiguess=small
scfmaxit=1000
lcorthr=normal
scfalg=locfit1

ccmaxit=400
usedisk=0
ccsdalg=dfdirect
ccsdthreads=4
ccsdmkl=thr
ptthreads=4

charge=-26
core=24

basis=special
bse_AVQZ
bse_VQZ
bse_VQZ
bse_VQZ
bse_VQZ
bse_VQZ
bse_VQZ
bse_AVQZ
bse_AVQZ
bse_AVQZ
bse_AVQZ
bse_AVQZ
bse_AVQZ
bse_AVQZ
bse_AVQZ
bse_AVQZ
bse_AVQZ
bse_AVQZ
bse_AVQZ
bse_AVQZ
bse_AVQZ
bse_AVQZ
bse_AVQZ
bse_AVQZ
bse_AVQZ
nothing
nothing
nothing
nothing
nothing
nothing
nothing
nothing
nothing
nothing
nothing
nothing
nothing
nothing
nothing
nothing
nothing
nothing
nothing
nothing
nothing
nothing
nothing
nothing
nothing
nothing
nothing
nothing
nothing
nothing
nothing
nothing
nothing
nothing
nothing
nothing
nothing
nothing
nothing
nothing
nothing
nothing
nothing
nothing
nothing
nothing
nothing
nothing
nothing
nothing
nothing
nothing
nothing
nothing
nothing
nothing
nothing
nothing
nothing
nothing
nothing
nothing
nothing
nothing
nothing
nothing
nothing
nothing
nothing
nothing
nothing
nothing
nothing
nothing
nothing
nothing
nothing
nothing
nothing
nothing
nothing
nothing
nothing
nothing
nothing
nothing
nothing
nothing
nothing
nothing
nothing
nothing
nothing
nothing
nothing
nothing
nothing
nothing
nothing
nothing
nothing
nothing
nothing
nothing
nothing
nothing
nothing
nothing
nothing
nothing
nothing
nothing
nothing
nothing
nothing
nothing
nothing
nothing
nothing
nothing
nothing
nothing
nothing
nothing
nothing
nothing
nothing
nothing
nothing
nothing
nothing
nothing
nothing
nothing
nothing
nothing
nothing
nothing
nothing
nothing
nothing
nothing
nothing
nothing
nothing
nothing
nothing
nothing
nothing
nothing
nothing
nothing
nothing
nothing
nothing
nothing
nothing
nothing
nothing
nothing
nothing
nothing
nothing
nothing
nothing
nothing
nothing
nothing
nothing
nothing
nothing
nothing
nothing
nothing
nothing
nothing
nothing
nothing
nothing
nothing
nothing
nothing
nothing
nothing
nothing
nothing
nothing
nothing
nothing
nothing
nothing
nothing
nothing
nothing
nothing
nothing
nothing
nothing
nothing
nothing
nothing
nothing
nothing
nothing
nothing
nothing
nothing
nothing
nothing
nothing
nothing
nothing
nothing
nothing
nothing
nothing
nothing
nothing
nothing
nothing
nothing
nothing
nothing
nothing
nothing
nothing
nothing
nothing
nothing
nothing
nothing
nothing
nothing
nothing
nothing
nothing
nothing
nothing
nothing
nothing
nothing
nothing
nothing
nothing
nothing
nothing
nothing
nothing
nothing
nothing
nothing
nothing
nothing
nothing
nothing
nothing
nothing
nothing
nothing
nothing

basis_sm=special
STO-3G
STO-3G
STO-3G
STO-3G
STO-3G
STO-3G
STO-3G
STO-3G
STO-3G
STO-3G
STO-3G
STO-3G
STO-3G
STO-3G
STO-3G
STO-3G
STO-3G
STO-3G
STO-3G
STO-3G
STO-3G
STO-3G
STO-3G
STO-3G
STO-3G
nothing
nothing
nothing
nothing
nothing
nothing
nothing
nothing
nothing
nothing
nothing
nothing
nothing
nothing
nothing
nothing
nothing
nothing
nothing
nothing
nothing
nothing
nothing
nothing
nothing
nothing
nothing
nothing
nothing
nothing
nothing
nothing
nothing
nothing
nothing
nothing
nothing
nothing
nothing
nothing
nothing
nothing
nothing
nothing
nothing
nothing
nothing
nothing
nothing
nothing
nothing
nothing
nothing
nothing
nothing
nothing
nothing
nothing
nothing
nothing
nothing
nothing
nothing
nothing
nothing
nothing
nothing
nothing
nothing
nothing
nothing
nothing
nothing
nothing
nothing
nothing
nothing
nothing
nothing
nothing
nothing
nothing
nothing
nothing
nothing
nothing
nothing
nothing
nothing
nothing
nothing
nothing
nothing
nothing
nothing
nothing
nothing
nothing
nothing
nothing
nothing
nothing
nothing
nothing
nothing
nothing
nothing
nothing
nothing
nothing
nothing
nothing
nothing
nothing
nothing
nothing
nothing
nothing
nothing
nothing
nothing
nothing
nothing
nothing
nothing
nothing
nothing
nothing
nothing
nothing
nothing
nothing
nothing
nothing
nothing
nothing
nothing
nothing
nothing
nothing
nothing
nothing
nothing
nothing
nothing
nothing
nothing
nothing
nothing
nothing
nothing
nothing
nothing
nothing
nothing
nothing
nothing
nothing
nothing
nothing
nothing
nothing
nothing
nothing
nothing
nothing
nothing
nothing
nothing
nothing
nothing
nothing
nothing
nothing
nothing
nothing
nothing
nothing
nothing
nothing
nothing
nothing
nothing
nothing
nothing
nothing
nothing
nothing
nothing
nothing
nothing
nothing
nothing
nothing
nothing
nothing
nothing
nothing
nothing
nothing
nothing
nothing
nothing
nothing
nothing
nothing
nothing
nothing
nothing
nothing
nothing
nothing
nothing
nothing
nothing
nothing
nothing
nothing
nothing
nothing
nothing
nothing
nothing
nothing
nothing
nothing
nothing
nothing
nothing
nothing
nothing
nothing
nothing
nothing
nothing
nothing
nothing
nothing
nothing
nothing
nothing
nothing
nothing
nothing
nothing
nothing
nothing
nothing
nothing
nothing
nothing
nothing
nothing
nothing
nothing
nothing
nothing
nothing
nothing
nothing

dfbasis_scf=special
bse_AVQZ_autoaux
bse_VQZ_autoaux
bse_VQZ_autoaux
bse_VQZ_autoaux
bse_VQZ_autoaux
bse_VQZ_autoaux
bse_VQZ_autoaux
bse_AVQZ_autoaux
bse_AVQZ_autoaux
bse_AVQZ_autoaux
bse_AVQZ_autoaux
bse_AVQZ_autoaux
bse_AVQZ_autoaux
bse_AVQZ_autoaux
bse_AVQZ_autoaux
bse_AVQZ_autoaux
bse_AVQZ_autoaux
bse_AVQZ_autoaux
bse_AVQZ_autoaux
bse_AVQZ_autoaux
bse_AVQZ_autoaux
bse_AVQZ_autoaux
bse_AVQZ_autoaux
bse_AVQZ_autoaux
bse_AVQZ_autoaux
nothing
nothing
nothing
nothing
nothing
nothing
nothing
nothing
nothing
nothing
nothing
nothing
nothing
nothing
nothing
nothing
nothing
nothing
nothing
nothing
nothing
nothing
nothing
nothing
nothing
nothing
nothing
nothing
nothing
nothing
nothing
nothing
nothing
nothing
nothing
nothing
nothing
nothing
nothing
nothing
nothing
nothing
nothing
nothing
nothing
nothing
nothing
nothing
nothing
nothing
nothing
nothing
nothing
nothing
nothing
nothing
nothing
nothing
nothing
nothing
nothing
nothing
nothing
nothing
nothing
nothing
nothing
nothing
nothing
nothing
nothing
nothing
nothing
nothing
nothing
nothing
nothing
nothing
nothing
nothing
nothing
nothing
nothing
nothing
nothing
nothing
nothing
nothing
nothing
nothing
nothing
nothing
nothing
nothing
nothing
nothing
nothing
nothing
nothing
nothing
nothing
nothing
nothing
nothing
nothing
nothing
nothing
nothing
nothing
nothing
nothing
nothing
nothing
nothing
nothing
nothing
nothing
nothing
nothing
nothing
nothing
nothing
nothing
nothing
nothing
nothing
nothing
nothing
nothing
nothing
nothing
nothing
nothing
nothing
nothing
nothing
nothing
nothing
nothing
nothing
nothing
nothing
nothing
nothing
nothing
nothing
nothing
nothing
nothing
nothing
nothing
nothing
nothing
nothing
nothing
nothing
nothing
nothing
nothing
nothing
nothing
nothing
nothing
nothing
nothing
nothing
nothing
nothing
nothing
nothing
nothing
nothing
nothing
nothing
nothing
nothing
nothing
nothing
nothing
nothing
nothing
nothing
nothing
nothing
nothing
nothing
nothing
nothing
nothing
nothing
nothing
nothing
nothing
nothing
nothing
nothing
nothing
nothing
nothing
nothing
nothing
nothing
nothing
nothing
nothing
nothing
nothing
nothing
nothing
nothing
nothing
nothing
nothing
nothing
nothing
nothing
nothing
nothing
nothing
nothing
nothing
nothing
nothing
nothing
nothing
nothing
nothing
nothing
nothing
nothing
nothing
nothing
nothing
nothing
nothing
nothing
nothing
nothing
nothing
nothing
nothing
nothing
nothing
nothing
nothing
nothing
nothing
nothing
nothing
nothing
nothing
nothing
nothing
nothing
nothing
nothing
nothing
nothing
nothing
nothing

dfbasis_cor=special
bse_AVQZ_autoaux
bse_VQZ_autoaux
bse_VQZ_autoaux
bse_VQZ_autoaux
bse_VQZ_autoaux
bse_VQZ_autoaux
bse_VQZ_autoaux
bse_AVQZ_autoaux
bse_AVQZ_autoaux
bse_AVQZ_autoaux
bse_AVQZ_autoaux
bse_AVQZ_autoaux
bse_AVQZ_autoaux
bse_AVQZ_autoaux
bse_AVQZ_autoaux
bse_AVQZ_autoaux
bse_AVQZ_autoaux
bse_AVQZ_autoaux
bse_AVQZ_autoaux
bse_AVQZ_autoaux
bse_AVQZ_autoaux
bse_AVQZ_autoaux
bse_AVQZ_autoaux
bse_AVQZ_autoaux
bse_AVQZ_autoaux
nothing
nothing
nothing
nothing
nothing
nothing
nothing
nothing
nothing
nothing
nothing
nothing
nothing
nothing
nothing
nothing
nothing
nothing
nothing
nothing
nothing
nothing
nothing
nothing
nothing
nothing
nothing
nothing
nothing
nothing
nothing
nothing
nothing
nothing
nothing
nothing
nothing
nothing
nothing
nothing
nothing
nothing
nothing
nothing
nothing
nothing
nothing
nothing
nothing
nothing
nothing
nothing
nothing
nothing
nothing
nothing
nothing
nothing
nothing
nothing
nothing
nothing
nothing
nothing
nothing
nothing
nothing
nothing
nothing
nothing
nothing
nothing
nothing
nothing
nothing
nothing
nothing
nothing
nothing
nothing
nothing
nothing
nothing
nothing
nothing
nothing
nothing
nothing
nothing
nothing
nothing
nothing
nothing
nothing
nothing
nothing
nothing
nothing
nothing
nothing
nothing
nothing
nothing
nothing
nothing
nothing
nothing
nothing
nothing
nothing
nothing
nothing
nothing
nothing
nothing
nothing
nothing
nothing
nothing
nothing
nothing
nothing
nothing
nothing
nothing
nothing
nothing
nothing
nothing
nothing
nothing
nothing
nothing
nothing
nothing
nothing
nothing
nothing
nothing
nothing
nothing
nothing
nothing
nothing
nothing
nothing
nothing
nothing
nothing
nothing
nothing
nothing
nothing
nothing
nothing
nothing
nothing
nothing
nothing
nothing
nothing
nothing
nothing
nothing
nothing
nothing
nothing
nothing
nothing
nothing
nothing
nothing
nothing
nothing
nothing
nothing
nothing
nothing
nothing
nothing
nothing
nothing
nothing
nothing
nothing
nothing
nothing
nothing
nothing
nothing
nothing
nothing
nothing
nothing
nothing
nothing
nothing
nothing
nothing
nothing
nothing
nothing
nothing
nothing
nothing
nothing
nothing
nothing
nothing
nothing
nothing
nothing
nothing
nothing
nothing
nothing
nothing
nothing
nothing
nothing
nothing
nothing
nothing
nothing
nothing
nothing
nothing
nothing
nothing
nothing
nothing
nothing
nothing
nothing
nothing
nothing
nothing
nothing
nothing
nothing
nothing
nothing
nothing
nothing
nothing
nothing
nothing
nothing
nothing
nothing
nothing
nothing
nothing
nothing
nothing
nothing
nothing
nothing
nothing
nothing

ecp=special
none
none
none
none
none
none
none
none
none
none
none
none
none
none
none
none
none
none
none
none
none
none
none
none
none
ECP-12
ECP-12
ECP-12
ECP-12
ECP-12
ECP-12
ECP-12
ECP-12
ECP-12
ECP-12
ECP-12
ECP-12
ECP-12
ECP-12
ECP-12
ECP-12
ECP-12
ECP-12
ECP-12
ECP-12
ECP-12
ECP-12
ECP-12
ECP-12
ECP-12
ECP-12
ECP-12
ECP-12
ECP-12
ECP-12
ECP-12
ECP-12
ECP-12
ECP-12
ECP-12
ECP-12
ECP-12
ECP-12
ECP-12
ECP-12
ECP-12
ECP-12
ECP-12
ECP-12
ECP-12
ECP-12
ECP-12
ECP-12
ECP-12
ECP-12
ECP-12
ECP-12
ECP-12
ECP-12
ECP-12
ECP-12
ECP-12
ECP-12
ECP-12
ECP-12
ECP-12
ECP-12
ECP-12
ECP-12
ECP-12
ECP-12
ECP-12
ECP-12
ECP-12
ECP-12
ECP-12
ECP-12
ECP-12
ECP-12
ECP-12
ECP-12
ECP-12
ECP-12
ECP-12
ECP-12
ECP-12
ECP-12
ECP-12
ECP-12
ECP-12
ECP-12
ECP-12
ECP-12
ECP-12
ECP-12
ECP-12
ECP-12
ECP-12
ECP-12
ECP-12
ECP-12
ECP-12
ECP-12
ECP-12
ECP-12
ECP-12
ECP-12
ECP-12
ECP-12
ECP-12
ECP-12
ECP-12
ECP-12
ECP-12
ECP-12
ECP-12
ECP-12
ECP-12
ECP-12
ECP-12
ECP-12
ECP-12
ECP-12
ECP-12
ECP-12
ECP-12
ECP-12
ECP-12
ECP-12
ECP-12
ECP-12
ECP-12
ECP-12
ECP-12
ECP-12
ECP-12
ECP-12
ECP-12
ECP-12
ECP-12
ECP-12
ECP-12
ECP-12
ECP-12
ECP-12
ECP-12
ECP-12
ECP-12
ECP-12
ECP-12
ECP-12
ECP-12
ECP-12
ECP-12
ECP-12
ECP-12
ECP-12
ECP-12
ECP-12
ECP-12
ECP-12
ECP-12
ECP-12
ECP-12
ECP-12
ECP-12
ECP-12
ECP-12
ECP-12
ECP-12
ECP-12
ECP-12
ECP-12
ECP-12
ECP-12
ECP-12
ECP-12
ECP-12
ECP-12
ECP-12
ECP-12
ECP-12
ECP-12
ECP-12
ECP-12
ECP-12
ECP-12
ECP-12
ECP-12
ECP-12
ECP-12
ECP-12
ECP-12
ECP-12
ECP-12
ECP-12
ECP-12
ECP-12
ECP-12
ECP-12
ECP-12
ECP-12
ECP-12
ECP-12
ECP-12
ECP-12
ECP-12
ECP-12
ECP-12
ECP-12
ECP-12
ECP-12
ECP-12
ECP-12
ECP-12
ECP-12
ECP-12
ECP-12
ECP-12
ECP-12
ECP-12
ECP-12
ECP-12
ECP-12
ECP-12
ECP-12
ECP-12
ECP-12
ECP-12
ECP-12
ECP-12
ECP-12
ECP-12
ECP-12
ECP-12
ECP-12
ECP-12
ECP-12
ECP-12
ECP-12
ECP-12
ECP-12
ECP-12
ECP-12
ECP-12
ECP-12
ECP-12
ECP-12
ECP-12
ECP-12
ECP-12
ECP-12
ECP-12
ECP-12
ECP-12
ECP-12
ECP-12
ECP-12
ECP-12
ECP-12
ECP-12
ECP-12
ECP-12
ECP-12
ECP-12

unit=angs
geom=xyz
285

O     0.00000000000    0.00000000000    0.00000000000
Mg    0.00000000000    0.00000000000    2.10322906414
Mg   -2.10322906414    0.00000000000    0.00000000000
Mg    0.00000000000    2.10322906414    0.00000000000
Mg    2.10322906414    0.00000000000    0.00000000000
Mg    0.00000000000   -2.10322906414    0.00000000000
Mg    0.00000000000    0.00000000000   -2.10322906414
O    -2.10322906414    0.00000000000    2.10322906414
O     0.00000000000    2.10322906414    2.10322906414
O     2.10322906414    0.00000000000    2.10322906414
O     0.00000000000   -2.10322906414    2.10322906414
O    -2.10322906414    2.10322906414    0.00000000000
O     2.10322906414    2.10322906414    0.00000000000
O     2.10322906414   -2.10322906414    0.00000000000
O    -2.10322906414   -2.10322906414    0.00000000000
O    -2.10322906414    0.00000000000   -2.10322906414
O     0.00000000000    2.10322906414   -2.10322906414
O     2.10322906414    0.00000000000   -2.10322906414
O     0.00000000000   -2.10322906414   -2.10322906414
O     0.00000000000    0.00000000000    4.20645812828
O    -4.20645812828    0.00000000000    0.00000000000
O     0.00000000000    4.20645812828    0.00000000000
O     4.20645812828    0.00000000000    0.00000000000
O     0.00000000000   -4.20645812828    0.00000000000
O     0.00000000000    0.00000000000   -4.20645812828
Mg   -2.10322906414    2.10322906414    2.10322906414
Mg    2.10322906414    2.10322906414    2.10322906414
Mg    2.10322906414   -2.10322906414    2.10322906414
Mg   -2.10322906414   -2.10322906414    2.10322906414
Mg   -2.10322906414    2.10322906414   -2.10322906414
Mg    2.10322906414    2.10322906414   -2.10322906414
Mg    2.10322906414   -2.10322906414   -2.10322906414
Mg   -2.10322906414   -2.10322906414   -2.10322906414
Mg   -2.10322906414    0.00000000000    4.20645812828
Mg    0.00000000000    2.10322906414    4.20645812828
Mg    2.10322906414    0.00000000000    4.20645812828
Mg    0.00000000000   -2.10322906414    4.20645812828
Mg   -4.20645812828    0.00000000000    2.10322906414
Mg    0.00000000000    4.20645812828    2.10322906414
Mg    4.20645812828    0.00000000000    2.10322906414
Mg    0.00000000000   -4.20645812828    2.10322906414
Mg   -4.20645812828    2.10322906414    0.00000000000
Mg   -2.10322906414    4.20645812828    0.00000000000
Mg    2.10322906414    4.20645812828    0.00000000000
Mg    4.20645812828    2.10322906414    0.00000000000
Mg    4.20645812828   -2.10322906414    0.00000000000
Mg    2.10322906414   -4.20645812828    0.00000000000
Mg   -2.10322906414   -4.20645812828    0.00000000000
Mg   -4.20645812828   -2.10322906414    0.00000000000
Mg   -4.20645812828    0.00000000000   -2.10322906414
Mg    0.00000000000    4.20645812828   -2.10322906414
Mg    4.20645812828    0.00000000000   -2.10322906414
Mg    0.00000000000   -4.20645812828   -2.10322906414
Mg   -2.10322906414    0.00000000000   -4.20645812828
Mg    0.00000000000    2.10322906414   -4.20645812828
Mg    2.10322906414    0.00000000000   -4.20645812828
Mg    0.00000000000   -2.10322906414   -4.20645812828
Mg    0.00000000000    0.00000000000    6.30968719243
Mg   -4.20645812828    2.10322906414    4.20645812828
Mg   -2.10322906414    4.20645812828    4.20645812828
Mg    2.10322906414    4.20645812828    4.20645812828
Mg    4.20645812828    2.10322906414    4.20645812828
Mg    4.20645812828   -2.10322906414    4.20645812828
Mg    2.10322906414   -4.20645812828    4.20645812828
Mg   -2.10322906414   -4.20645812828    4.20645812828
Mg   -4.20645812828   -2.10322906414    4.20645812828
Mg   -4.20645812828    4.20645812828    2.10322906414
Mg    4.20645812828    4.20645812828    2.10322906414
Mg    4.20645812828   -4.20645812828    2.10322906414
Mg   -4.20645812828   -4.20645812828    2.10322906414
Mg   -6.30968719243    0.00000000000    0.00000000000
Mg    0.00000000000    6.30968719243    0.00000000000
Mg    6.30968719243    0.00000000000    0.00000000000
Mg    0.00000000000   -6.30968719243    0.00000000000
Mg   -4.20645812828    4.20645812828   -2.10322906414
Mg    4.20645812828    4.20645812828   -2.10322906414
Mg    4.20645812828   -4.20645812828   -2.10322906414
Mg   -4.20645812828   -4.20645812828   -2.10322906414
Mg   -4.20645812828    2.10322906414   -4.20645812828
Mg   -2.10322906414    4.20645812828   -4.20645812828
Mg    2.10322906414    4.20645812828   -4.20645812828
Mg    4.20645812828    2.10322906414   -4.20645812828
Mg    4.20645812828   -2.10322906414   -4.20645812828
Mg    2.10322906414   -4.20645812828   -4.20645812828
Mg   -2.10322906414   -4.20645812828   -4.20645812828
Mg   -4.20645812828   -2.10322906414   -4.20645812828
Mg    0.00000000000    0.00000000000   -6.30968719243
Mg   -2.10322906414    2.10322906414    6.30968719243
Mg    2.10322906414    2.10322906414    6.30968719243
Mg    2.10322906414   -2.10322906414    6.30968719243
Mg   -2.10322906414   -2.10322906414    6.30968719243
Mg   -6.30968719243    2.10322906414    2.10322906414
Mg   -2.10322906414    6.30968719243    2.10322906414
Mg    2.10322906414    6.30968719243    2.10322906414
Mg    6.30968719243    2.10322906414    2.10322906414
Mg    6.30968719243   -2.10322906414    2.10322906414
Mg    2.10322906414   -6.30968719243    2.10322906414
Mg   -2.10322906414   -6.30968719243    2.10322906414
Mg   -6.30968719243   -2.10322906414    2.10322906414
Mg   -6.30968719243    2.10322906414   -2.10322906414
Mg   -2.10322906414    6.30968719243   -2.10322906414
Mg    2.10322906414    6.30968719243   -2.10322906414
Mg    6.30968719243    2.10322906414   -2.10322906414
Mg    6.30968719243   -2.10322906414   -2.10322906414
Mg    2.10322906414   -6.30968719243   -2.10322906414
Mg   -2.10322906414   -6.30968719243   -2.10322906414
Mg   -6.30968719243   -2.10322906414   -2.10322906414
Mg   -2.10322906414    2.10322906414   -6.30968719243
Mg    2.10322906414    2.10322906414   -6.30968719243
Mg    2.10322906414   -2.10322906414   -6.30968719243
Mg   -2.10322906414   -2.10322906414   -6.30968719243
Mg   -4.20645812828    0.00000000000    6.30968719243
Mg    0.00000000000    4.20645812828    6.30968719243
Mg    4.20645812828    0.00000000000    6.30968719243
Mg    0.00000000000   -4.20645812828    6.30968719243
Mg   -6.30968719243    0.00000000000    4.20645812828
Mg    0.00000000000    6.30968719243    4.20645812828
Mg    6.30968719243    0.00000000000    4.20645812828
Mg    0.00000000000   -6.30968719243    4.20645812828
Mg   -6.30968719243    4.20645812828    0.00000000000
Mg   -4.20645812828    6.30968719243    0.00000000000
Mg    4.20645812828    6.30968719243    0.00000000000
Mg    6.30968719243    4.20645812828    0.00000000000
Mg    6.30968719243   -4.20645812828    0.00000000000
Mg    4.20645812828   -6.30968719243    0.00000000000
Mg   -4.20645812828   -6.30968719243    0.00000000000
Mg   -6.30968719243   -4.20645812828    0.00000000000
Mg   -6.30968719243    0.00000000000   -4.20645812828
Mg    0.00000000000    6.30968719243   -4.20645812828
Mg    6.30968719243    0.00000000000   -4.20645812828
Mg    0.00000000000   -6.30968719243   -4.20645812828
Mg   -4.20645812828    0.00000000000   -6.30968719243
Mg    0.00000000000    4.20645812828   -6.30968719243
Mg    4.20645812828    0.00000000000   -6.30968719243
Mg    0.00000000000   -4.20645812828   -6.30968719243
Mg   -2.10322906414    0.00000000000    8.41291625657
Mg    0.00000000000    2.10322906414    8.41291625657
Mg    2.10322906414    0.00000000000    8.41291625657
Mg    0.00000000000   -2.10322906414    8.41291625657
Mg   -4.20645812828    4.20645812828    6.30968719243
Mg    4.20645812828    4.20645812828    6.30968719243
Mg    4.20645812828   -4.20645812828    6.30968719243
Mg   -4.20645812828   -4.20645812828    6.30968719243
Mg   -6.30968719243    4.20645812828    4.20645812828
Mg   -4.20645812828    6.30968719243    4.20645812828
Mg    4.20645812828    6.30968719243    4.20645812828
Mg    6.30968719243    4.20645812828    4.20645812828
Mg    6.30968719243   -4.20645812828    4.20645812828
Mg    4.20645812828   -6.30968719243    4.20645812828
Mg   -4.20645812828   -6.30968719243    4.20645812828
Mg   -6.30968719243   -4.20645812828    4.20645812828
Mg   -8.41291625657    0.00000000000    2.10322906414
Mg    0.00000000000    8.41291625657    2.10322906414
Mg    8.41291625657    0.00000000000    2.10322906414
Mg    0.00000000000   -8.41291625657    2.10322906414
Mg   -8.41291625657    2.10322906414    0.00000000000
Mg   -2.10322906414    8.41291625657    0.00000000000
Mg    2.10322906414    8.41291625657    0.00000000000
Mg    8.41291625657    2.10322906414    0.00000000000
Mg    8.41291625657   -2.10322906414    0.00000000000
Mg    2.10322906414   -8.41291625657    0.00000000000
Mg   -2.10322906414   -8.41291625657    0.00000000000
Mg   -8.41291625657   -2.10322906414    0.00000000000
Mg   -8.41291625657    0.00000000000   -2.10322906414
Mg    0.00000000000    8.41291625657   -2.10322906414
Mg    8.41291625657    0.00000000000   -2.10322906414
Mg    0.00000000000   -8.41291625657   -2.10322906414
Mg   -6.30968719243    4.20645812828   -4.20645812828
Mg   -4.20645812828    6.30968719243   -4.20645812828
Mg    4.20645812828    6.30968719243   -4.20645812828
Mg    6.30968719243    4.20645812828   -4.20645812828
Mg    6.30968719243   -4.20645812828   -4.20645812828
Mg    4.20645812828   -6.30968719243   -4.20645812828
Mg   -4.20645812828   -6.30968719243   -4.20645812828
Mg   -6.30968719243   -4.20645812828   -4.20645812828
Mg   -4.20645812828    4.20645812828   -6.30968719243
Mg    4.20645812828    4.20645812828   -6.30968719243
Mg    4.20645812828   -4.20645812828   -6.30968719243
Mg   -4.20645812828   -4.20645812828   -6.30968719243
Mg   -2.10322906414    0.00000000000   -8.41291625657
Mg    0.00000000000    2.10322906414   -8.41291625657
Mg    2.10322906414    0.00000000000   -8.41291625657
Mg    0.00000000000   -2.10322906414   -8.41291625657
Mg   -6.30968719243    2.10322906414    6.30968719243
Mg   -2.10322906414    6.30968719243    6.30968719243
Mg    2.10322906414    6.30968719243    6.30968719243
Mg    6.30968719243    2.10322906414    6.30968719243
Mg    6.30968719243   -2.10322906414    6.30968719243
Mg    2.10322906414   -6.30968719243    6.30968719243
Mg   -2.10322906414   -6.30968719243    6.30968719243
Mg   -6.30968719243   -2.10322906414    6.30968719243
Mg   -6.30968719243    6.30968719243    2.10322906414
Mg    6.30968719243    6.30968719243    2.10322906414
Mg    6.30968719243   -6.30968719243    2.10322906414
Mg   -6.30968719243   -6.30968719243    2.10322906414
Mg   -6.30968719243    6.30968719243   -2.10322906414
Mg    6.30968719243    6.30968719243   -2.10322906414
Mg    6.30968719243   -6.30968719243   -2.10322906414
Mg   -6.30968719243   -6.30968719243   -2.10322906414
Mg   -6.30968719243    2.10322906414   -6.30968719243
Mg   -2.10322906414    6.30968719243   -6.30968719243
Mg    2.10322906414    6.30968719243   -6.30968719243
Mg    6.30968719243    2.10322906414   -6.30968719243
Mg    6.30968719243   -2.10322906414   -6.30968719243
Mg    2.10322906414   -6.30968719243   -6.30968719243
Mg   -2.10322906414   -6.30968719243   -6.30968719243
Mg   -6.30968719243   -2.10322906414   -6.30968719243
Mg   -4.20645812828    2.10322906414    8.41291625657
Mg   -2.10322906414    4.20645812828    8.41291625657
Mg    2.10322906414    4.20645812828    8.41291625657
Mg    4.20645812828    2.10322906414    8.41291625657
Mg    4.20645812828   -2.10322906414    8.41291625657
Mg    2.10322906414   -4.20645812828    8.41291625657
Mg   -2.10322906414   -4.20645812828    8.41291625657
Mg   -4.20645812828   -2.10322906414    8.41291625657
Mg   -8.41291625657    2.10322906414    4.20645812828
Mg   -2.10322906414    8.41291625657    4.20645812828
Mg    2.10322906414    8.41291625657    4.20645812828
Mg    8.41291625657    2.10322906414    4.20645812828
Mg    8.41291625657   -2.10322906414    4.20645812828
Mg    2.10322906414   -8.41291625657    4.20645812828
Mg   -2.10322906414   -8.41291625657    4.20645812828
Mg   -8.41291625657   -2.10322906414    4.20645812828
Mg   -8.41291625657    4.20645812828    2.10322906414
Mg   -4.20645812828    8.41291625657    2.10322906414
Mg    4.20645812828    8.41291625657    2.10322906414
Mg    8.41291625657    4.20645812828    2.10322906414
Mg    8.41291625657   -4.20645812828    2.10322906414
Mg    4.20645812828   -8.41291625657    2.10322906414
Mg   -4.20645812828   -8.41291625657    2.10322906414
Mg   -8.41291625657   -4.20645812828    2.10322906414
Mg   -8.41291625657    4.20645812828   -2.10322906414
Mg   -4.20645812828    8.41291625657   -2.10322906414
Mg    4.20645812828    8.41291625657   -2.10322906414
Mg    8.41291625657    4.20645812828   -2.10322906414
Mg    8.41291625657   -4.20645812828   -2.10322906414
Mg    4.20645812828   -8.41291625657   -2.10322906414
Mg   -4.20645812828   -8.41291625657   -2.10322906414
Mg   -8.41291625657   -4.20645812828   -2.10322906414
Mg   -8.41291625657    2.10322906414   -4.20645812828
Mg   -2.10322906414    8.41291625657   -4.20645812828
Mg    2.10322906414    8.41291625657   -4.20645812828
Mg    8.41291625657    2.10322906414   -4.20645812828
Mg    8.41291625657   -2.10322906414   -4.20645812828
Mg    2.10322906414   -8.41291625657   -4.20645812828
Mg   -2.10322906414   -8.41291625657   -4.20645812828
Mg   -8.41291625657   -2.10322906414   -4.20645812828
Mg   -4.20645812828    2.10322906414   -8.41291625657
Mg   -2.10322906414    4.20645812828   -8.41291625657
Mg    2.10322906414    4.20645812828   -8.41291625657
Mg    4.20645812828    2.10322906414   -8.41291625657
Mg    4.20645812828   -2.10322906414   -8.41291625657
Mg    2.10322906414   -4.20645812828   -8.41291625657
Mg   -2.10322906414   -4.20645812828   -8.41291625657
Mg   -4.20645812828   -2.10322906414   -8.41291625657
Mg    0.00000000000    0.00000000000   10.51614532071
Mg  -10.51614532071    0.00000000000    0.00000000000
Mg    0.00000000000   10.51614532071    0.00000000000
Mg   10.51614532071    0.00000000000    0.00000000000
Mg    0.00000000000  -10.51614532071    0.00000000000
Mg    0.00000000000    0.00000000000  -10.51614532071
Mg   -2.10322906414    2.10322906414   10.51614532071
Mg    2.10322906414    2.10322906414   10.51614532071
Mg    2.10322906414   -2.10322906414   10.51614532071
Mg   -2.10322906414   -2.10322906414   10.51614532071
Mg  -10.51614532071    2.10322906414    2.10322906414
Mg   -2.10322906414   10.51614532071    2.10322906414
Mg    2.10322906414   10.51614532071    2.10322906414
Mg   10.51614532071    2.10322906414    2.10322906414
Mg   10.51614532071   -2.10322906414    2.10322906414
Mg    2.10322906414  -10.51614532071    2.10322906414
Mg   -2.10322906414  -10.51614532071    2.10322906414
Mg  -10.51614532071   -2.10322906414    2.10322906414
Mg  -10.51614532071    2.10322906414   -2.10322906414
Mg   -2.10322906414   10.51614532071   -2.10322906414
Mg    2.10322906414   10.51614532071   -2.10322906414
Mg   10.51614532071    2.10322906414   -2.10322906414
Mg   10.51614532071   -2.10322906414   -2.10322906414
Mg    2.10322906414  -10.51614532071   -2.10322906414
Mg   -2.10322906414  -10.51614532071   -2.10322906414
Mg  -10.51614532071   -2.10322906414   -2.10322906414
Mg   -2.10322906414    2.10322906414  -10.51614532071
Mg    2.10322906414    2.10322906414  -10.51614532071
Mg    2.10322906414   -2.10322906414  -10.51614532071
Mg   -2.10322906414   -2.10322906414  -10.51614532071

ghost=serialno
1

qmmm=Amber
pointcharges
12124
     -2.10322906414    2.10322906414    2.10322906414    2.00000000000
      2.10322906414    2.10322906414    2.10322906414    2.00000000000
      2.10322906414   -2.10322906414    2.10322906414    2.00000000000
     -2.10322906414   -2.10322906414    2.10322906414    2.00000000000
     -2.10322906414    2.10322906414   -2.10322906414    2.00000000000
      2.10322906414    2.10322906414   -2.10322906414    2.00000000000
      2.10322906414   -2.10322906414   -2.10322906414    2.00000000000
     -2.10322906414   -2.10322906414   -2.10322906414    2.00000000000
     -2.10322906414    0.00000000000    4.20645812828    2.00000000000
      0.00000000000    2.10322906414    4.20645812828    2.00000000000
      2.10322906414    0.00000000000    4.20645812828    2.00000000000
      0.00000000000   -2.10322906414    4.20645812828    2.00000000000
     -4.20645812828    0.00000000000    2.10322906414    2.00000000000
      0.00000000000    4.20645812828    2.10322906414    2.00000000000
      4.20645812828    0.00000000000    2.10322906414    2.00000000000
      0.00000000000   -4.20645812828    2.10322906414    2.00000000000
     -4.20645812828    2.10322906414    0.00000000000    2.00000000000
     -2.10322906414    4.20645812828    0.00000000000    2.00000000000
      2.10322906414    4.20645812828    0.00000000000    2.00000000000
      4.20645812828    2.10322906414    0.00000000000    2.00000000000
      4.20645812828   -2.10322906414    0.00000000000    2.00000000000
      2.10322906414   -4.20645812828    0.00000000000    2.00000000000
     -2.10322906414   -4.20645812828    0.00000000000    2.00000000000
     -4.20645812828   -2.10322906414    0.00000000000    2.00000000000
     -4.20645812828    0.00000000000   -2.10322906414    2.00000000000
      0.00000000000    4.20645812828   -2.10322906414    2.00000000000
      4.20645812828    0.00000000000   -2.10322906414    2.00000000000
      0.00000000000   -4.20645812828   -2.10322906414    2.00000000000
     -2.10322906414    0.00000000000   -4.20645812828    2.00000000000
      0.00000000000    2.10322906414   -4.20645812828    2.00000000000
      2.10322906414    0.00000000000   -4.20645812828    2.00000000000
      0.00000000000   -2.10322906414   -4.20645812828    2.00000000000
     -2.10322906414    2.10322906414    4.20645812828   -2.00000000000
      2.10322906414    2.10322906414    4.20645812828   -2.00000000000
      2.10322906414   -2.10322906414    4.20645812828   -2.00000000000
     -2.10322906414   -2.10322906414    4.20645812828   -2.00000000000
     -4.20645812828    2.10322906414    2.10322906414   -2.00000000000
     -2.10322906414    4.20645812828    2.10322906414   -2.00000000000
      2.10322906414    4.20645812828    2.10322906414   -2.00000000000
      4.20645812828    2.10322906414    2.10322906414   -2.00000000000
      4.20645812828   -2.10322906414    2.10322906414   -2.00000000000
      2.10322906414   -4.20645812828    2.10322906414   -2.00000000000
     -2.10322906414   -4.20645812828    2.10322906414   -2.00000000000
     -4.20645812828   -2.10322906414    2.10322906414   -2.00000000000
     -4.20645812828    2.10322906414   -2.10322906414   -2.00000000000
     -2.10322906414    4.20645812828   -2.10322906414   -2.00000000000
      2.10322906414    4.20645812828   -2.10322906414   -2.00000000000
      4.20645812828    2.10322906414   -2.10322906414   -2.00000000000
      4.20645812828   -2.10322906414   -2.10322906414   -2.00000000000
      2.10322906414   -4.20645812828   -2.10322906414   -2.00000000000
     -2.10322906414   -4.20645812828   -2.10322906414   -2.00000000000
     -4.20645812828   -2.10322906414   -2.10322906414   -2.00000000000
     -2.10322906414    2.10322906414   -4.20645812828   -2.00000000000
      2.10322906414    2.10322906414   -4.20645812828   -2.00000000000
      2.10322906414   -2.10322906414   -4.20645812828   -2.00000000000
     -2.10322906414   -2.10322906414   -4.20645812828   -2.00000000000
     -4.20645812828    0.00000000000    4.20645812828   -2.00000000000
      0.00000000000    4.20645812828    4.20645812828   -2.00000000000
      4.20645812828    0.00000000000    4.20645812828   -2.00000000000
      0.00000000000   -4.20645812828    4.20645812828   -2.00000000000
     -4.20645812828    4.20645812828    0.00000000000   -2.00000000000
      4.20645812828    4.20645812828    0.00000000000   -2.00000000000
      4.20645812828   -4.20645812828    0.00000000000   -2.00000000000
     -4.20645812828   -4.20645812828    0.00000000000   -2.00000000000
     -4.20645812828    0.00000000000   -4.20645812828   -2.00000000000
      0.00000000000    4.20645812828   -4.20645812828   -2.00000000000
      4.20645812828    0.00000000000   -4.20645812828   -2.00000000000
      0.00000000000   -4.20645812828   -4.20645812828   -2.00000000000
      0.00000000000    0.00000000000    6.30968719243    2.00000000000
     -4.20645812828    2.10322906414    4.20645812828    2.00000000000
     -2.10322906414    4.20645812828    4.20645812828    2.00000000000
      2.10322906414    4.20645812828    4.20645812828    2.00000000000
      4.20645812828    2.10322906414    4.20645812828    2.00000000000
      4.20645812828   -2.10322906414    4.20645812828    2.00000000000
      2.10322906414   -4.20645812828    4.20645812828    2.00000000000
     -2.10322906414   -4.20645812828    4.20645812828    2.00000000000
     -4.20645812828   -2.10322906414    4.20645812828    2.00000000000
     -4.20645812828    4.20645812828    2.10322906414    2.00000000000
      4.20645812828    4.20645812828    2.10322906414    2.00000000000
      4.20645812828   -4.20645812828    2.10322906414    2.00000000000
     -4.20645812828   -4.20645812828    2.10322906414    2.00000000000
     -6.30968719243    0.00000000000    0.00000000000    2.00000000000
      0.00000000000    6.30968719243    0.00000000000    2.00000000000
      6.30968719243    0.00000000000    0.00000000000    2.00000000000
      0.00000000000   -6.30968719243    0.00000000000    2.00000000000
     -4.20645812828    4.20645812828   -2.10322906414    2.00000000000
      4.20645812828    4.20645812828   -2.10322906414    2.00000000000
      4.20645812828   -4.20645812828   -2.10322906414    2.00000000000
     -4.20645812828   -4.20645812828   -2.10322906414    2.00000000000
     -4.20645812828    2.10322906414   -4.20645812828    2.00000000000
     -2.10322906414    4.20645812828   -4.20645812828    2.00000000000
      2.10322906414    4.20645812828   -4.20645812828    2.00000000000
      4.20645812828    2.10322906414   -4.20645812828    2.00000000000
      4.20645812828   -2.10322906414   -4.20645812828    2.00000000000
      2.10322906414   -4.20645812828   -4.20645812828    2.00000000000
     -2.10322906414   -4.20645812828   -4.20645812828    2.00000000000
     -4.20645812828   -2.10322906414   -4.20645812828    2.00000000000
      0.00000000000    0.00000000000   -6.30968719243    2.00000000000
     -2.10322906414    0.00000000000    6.30968719243   -2.00000000000
      0.00000000000    2.10322906414    6.30968719243   -2.00000000000
      2.10322906414    0.00000000000    6.30968719243   -2.00000000000
      0.00000000000   -2.10322906414    6.30968719243   -2.00000000000
     -6.30968719243    0.00000000000    2.10322906414   -2.00000000000
      0.00000000000    6.30968719243    2.10322906414   -2.00000000000
      6.30968719243    0.00000000000    2.10322906414   -2.00000000000
      0.00000000000   -6.30968719243    2.10322906414   -2.00000000000
     -6.30968719243    2.10322906414    0.00000000000   -2.00000000000
     -2.10322906414    6.30968719243    0.00000000000   -2.00000000000
      2.10322906414    6.30968719243    0.00000000000   -2.00000000000
      6.30968719243    2.10322906414    0.00000000000   -2.00000000000
      6.30968719243   -2.10322906414    0.00000000000   -2.00000000000
      2.10322906414   -6.30968719243    0.00000000000   -2.00000000000
     -2.10322906414   -6.30968719243    0.00000000000   -2.00000000000
     -6.30968719243   -2.10322906414    0.00000000000   -2.00000000000
     -6.30968719243    0.00000000000   -2.10322906414   -2.00000000000
      0.00000000000    6.30968719243   -2.10322906414   -2.00000000000
      6.30968719243    0.00000000000   -2.10322906414   -2.00000000000
      0.00000000000   -6.30968719243   -2.10322906414   -2.00000000000
     -2.10322906414    0.00000000000   -6.30968719243   -2.00000000000
      0.00000000000    2.10322906414   -6.30968719243   -2.00000000000
      2.10322906414    0.00000000000   -6.30968719243   -2.00000000000
      0.00000000000   -2.10322906414   -6.30968719243   -2.00000000000
     -2.10322906414    2.10322906414    6.30968719243    2.00000000000
      2.10322906414    2.10322906414    6.30968719243    2.00000000000
      2.10322906414   -2.10322906414    6.30968719243    2.00000000000
     -2.10322906414   -2.10322906414    6.30968719243    2.00000000000
     -6.30968719243    2.10322906414    2.10322906414    2.00000000000
     -2.10322906414    6.30968719243    2.10322906414    2.00000000000
      2.10322906414    6.30968719243    2.10322906414    2.00000000000
      6.30968719243    2.10322906414    2.10322906414    2.00000000000
      6.30968719243   -2.10322906414    2.10322906414    2.00000000000
      2.10322906414   -6.30968719243    2.10322906414    2.00000000000
     -2.10322906414   -6.30968719243    2.10322906414    2.00000000000
     -6.30968719243   -2.10322906414    2.10322906414    2.00000000000
     -6.30968719243    2.10322906414   -2.10322906414    2.00000000000
     -2.10322906414    6.30968719243   -2.10322906414    2.00000000000
      2.10322906414    6.30968719243   -2.10322906414    2.00000000000
      6.30968719243    2.10322906414   -2.10322906414    2.00000000000
      6.30968719243   -2.10322906414   -2.10322906414    2.00000000000
      2.10322906414   -6.30968719243   -2.10322906414    2.00000000000
     -2.10322906414   -6.30968719243   -2.10322906414    2.00000000000
     -6.30968719243   -2.10322906414   -2.10322906414    2.00000000000
     -2.10322906414    2.10322906414   -6.30968719243    2.00000000000
      2.10322906414    2.10322906414   -6.30968719243    2.00000000000
      2.10322906414   -2.10322906414   -6.30968719243    2.00000000000
     -2.10322906414   -2.10322906414   -6.30968719243    2.00000000000
     -4.20645812828    4.20645812828    4.20645812828   -2.00000000000
      4.20645812828    4.20645812828    4.20645812828   -2.00000000000
      4.20645812828   -4.20645812828    4.20645812828   -2.00000000000
     -4.20645812828   -4.20645812828    4.20645812828   -2.00000000000
     -4.20645812828    4.20645812828   -4.20645812828   -2.00000000000
      4.20645812828    4.20645812828   -4.20645812828   -2.00000000000
      4.20645812828   -4.20645812828   -4.20645812828   -2.00000000000
     -4.20645812828   -4.20645812828   -4.20645812828   -2.00000000000
     -4.20645812828    0.00000000000    6.30968719243    2.00000000000
      0.00000000000    4.20645812828    6.30968719243    2.00000000000
      4.20645812828    0.00000000000    6.30968719243    2.00000000000
      0.00000000000   -4.20645812828    6.30968719243    2.00000000000
     -6.30968719243    0.00000000000    4.20645812828    2.00000000000
      0.00000000000    6.30968719243    4.20645812828    2.00000000000
      6.30968719243    0.00000000000    4.20645812828    2.00000000000
      0.00000000000   -6.30968719243    4.20645812828    2.00000000000
     -6.30968719243    4.20645812828    0.00000000000    2.00000000000
     -4.20645812828    6.30968719243    0.00000000000    2.00000000000
      4.20645812828    6.30968719243    0.00000000000    2.00000000000
      6.30968719243    4.20645812828    0.00000000000    2.00000000000
      6.30968719243   -4.20645812828    0.00000000000    2.00000000000
      4.20645812828   -6.30968719243    0.00000000000    2.00000000000
     -4.20645812828   -6.30968719243    0.00000000000    2.00000000000
     -6.30968719243   -4.20645812828    0.00000000000    2.00000000000
     -6.30968719243    0.00000000000   -4.20645812828    2.00000000000
      0.00000000000    6.30968719243   -4.20645812828    2.00000000000
      6.30968719243    0.00000000000   -4.20645812828    2.00000000000
      0.00000000000   -6.30968719243   -4.20645812828    2.00000000000
     -4.20645812828    0.00000000000   -6.30968719243    2.00000000000
      0.00000000000    4.20645812828   -6.30968719243    2.00000000000
      4.20645812828    0.00000000000   -6.30968719243    2.00000000000
      0.00000000000   -4.20645812828   -6.30968719243    2.00000000000
     -4.20645812828    2.10322906414    6.30968719243   -2.00000000000
     -2.10322906414    4.20645812828    6.30968719243   -2.00000000000
      2.10322906414    4.20645812828    6.30968719243   -2.00000000000
      4.20645812828    2.10322906414    6.30968719243   -2.00000000000
      4.20645812828   -2.10322906414    6.30968719243   -2.00000000000
      2.10322906414   -4.20645812828    6.30968719243   -2.00000000000
     -2.10322906414   -4.20645812828    6.30968719243   -2.00000000000
     -4.20645812828   -2.10322906414    6.30968719243   -2.00000000000
     -6.30968719243    2.10322906414    4.20645812828   -2.00000000000
     -2.10322906414    6.30968719243    4.20645812828   -2.00000000000
      2.10322906414    6.30968719243    4.20645812828   -2.00000000000
      6.30968719243    2.10322906414    4.20645812828   -2.00000000000
      6.30968719243   -2.10322906414    4.20645812828   -2.00000000000
      2.10322906414   -6.30968719243    4.20645812828   -2.00000000000
     -2.10322906414   -6.30968719243    4.20645812828   -2.00000000000
     -6.30968719243   -2.10322906414    4.20645812828   -2.00000000000
     -6.30968719243    4.20645812828    2.10322906414   -2.00000000000
     -4.20645812828    6.30968719243    2.10322906414   -2.00000000000
      4.20645812828    6.30968719243    2.10322906414   -2.00000000000
      6.30968719243    4.20645812828    2.10322906414   -2.00000000000
      6.30968719243   -4.20645812828    2.10322906414   -2.00000000000
      4.20645812828   -6.30968719243    2.10322906414   -2.00000000000
     -4.20645812828   -6.30968719243    2.10322906414   -2.00000000000
     -6.30968719243   -4.20645812828    2.10322906414   -2.00000000000
     -6.30968719243    4.20645812828   -2.10322906414   -2.00000000000
     -4.20645812828    6.30968719243   -2.10322906414   -2.00000000000
      4.20645812828    6.30968719243   -2.10322906414   -2.00000000000
      6.30968719243    4.20645812828   -2.10322906414   -2.00000000000
      6.30968719243   -4.20645812828   -2.10322906414   -2.00000000000
      4.20645812828   -6.30968719243   -2.10322906414   -2.00000000000
     -4.20645812828   -6.30968719243   -2.10322906414   -2.00000000000
     -6.30968719243   -4.20645812828   -2.10322906414   -2.00000000000
     -6.30968719243    2.10322906414   -4.20645812828   -2.00000000000
     -2.10322906414    6.30968719243   -4.20645812828   -2.00000000000
      2.10322906414    6.30968719243   -4.20645812828   -2.00000000000
      6.30968719243    2.10322906414   -4.20645812828   -2.00000000000
      6.30968719243   -2.10322906414   -4.20645812828   -2.00000000000
      2.10322906414   -6.30968719243   -4.20645812828   -2.00000000000
     -2.10322906414   -6.30968719243   -4.20645812828   -2.00000000000
     -6.30968719243   -2.10322906414   -4.20645812828   -2.00000000000
     -4.20645812828    2.10322906414   -6.30968719243   -2.00000000000
     -2.10322906414    4.20645812828   -6.30968719243   -2.00000000000
      2.10322906414    4.20645812828   -6.30968719243   -2.00000000000
      4.20645812828    2.10322906414   -6.30968719243   -2.00000000000
      4.20645812828   -2.10322906414   -6.30968719243   -2.00000000000
      2.10322906414   -4.20645812828   -6.30968719243   -2.00000000000
     -2.10322906414   -4.20645812828   -6.30968719243   -2.00000000000
     -4.20645812828   -2.10322906414   -6.30968719243   -2.00000000000
      0.00000000000    0.00000000000    8.41291625657   -2.00000000000
     -8.41291625657    0.00000000000    0.00000000000   -2.00000000000
      0.00000000000    8.41291625657    0.00000000000   -2.00000000000
      8.41291625657    0.00000000000    0.00000000000   -2.00000000000
      0.00000000000   -8.41291625657    0.00000000000   -2.00000000000
      0.00000000000    0.00000000000   -8.41291625657   -2.00000000000
     -2.10322906414    0.00000000000    8.41291625657    2.00000000000
      0.00000000000    2.10322906414    8.41291625657    2.00000000000
      2.10322906414    0.00000000000    8.41291625657    2.00000000000
      0.00000000000   -2.10322906414    8.41291625657    2.00000000000
     -4.20645812828    4.20645812828    6.30968719243    2.00000000000
      4.20645812828    4.20645812828    6.30968719243    2.00000000000
      4.20645812828   -4.20645812828    6.30968719243    2.00000000000
     -4.20645812828   -4.20645812828    6.30968719243    2.00000000000
     -6.30968719243    4.20645812828    4.20645812828    2.00000000000
     -4.20645812828    6.30968719243    4.20645812828    2.00000000000
      4.20645812828    6.30968719243    4.20645812828    2.00000000000
      6.30968719243    4.20645812828    4.20645812828    2.00000000000
      6.30968719243   -4.20645812828    4.20645812828    2.00000000000
      4.20645812828   -6.30968719243    4.20645812828    2.00000000000
     -4.20645812828   -6.30968719243    4.20645812828    2.00000000000
     -6.30968719243   -4.20645812828    4.20645812828    2.00000000000
     -8.41291625657    0.00000000000    2.10322906414    2.00000000000
      0.00000000000    8.41291625657    2.10322906414    2.00000000000
      8.41291625657    0.00000000000    2.10322906414    2.00000000000
      0.00000000000   -8.41291625657    2.10322906414    2.00000000000
     -8.41291625657    2.10322906414    0.00000000000    2.00000000000
     -2.10322906414    8.41291625657    0.00000000000    2.00000000000
      2.10322906414    8.41291625657    0.00000000000    2.00000000000
      8.41291625657    2.10322906414    0.00000000000    2.00000000000
      8.41291625657   -2.10322906414    0.00000000000    2.00000000000
      2.10322906414   -8.41291625657    0.00000000000    2.00000000000
     -2.10322906414   -8.41291625657    0.00000000000    2.00000000000
     -8.41291625657   -2.10322906414    0.00000000000    2.00000000000
     -8.41291625657    0.00000000000   -2.10322906414    2.00000000000
      0.00000000000    8.41291625657   -2.10322906414    2.00000000000
      8.41291625657    0.00000000000   -2.10322906414    2.00000000000
      0.00000000000   -8.41291625657   -2.10322906414    2.00000000000
     -6.30968719243    4.20645812828   -4.20645812828    2.00000000000
     -4.20645812828    6.30968719243   -4.20645812828    2.00000000000
      4.20645812828    6.30968719243   -4.20645812828    2.00000000000
      6.30968719243    4.20645812828   -4.20645812828    2.00000000000
      6.30968719243   -4.20645812828   -4.20645812828    2.00000000000
      4.20645812828   -6.30968719243   -4.20645812828    2.00000000000
     -4.20645812828   -6.30968719243   -4.20645812828    2.00000000000
     -6.30968719243   -4.20645812828   -4.20645812828    2.00000000000
     -4.20645812828    4.20645812828   -6.30968719243    2.00000000000
      4.20645812828    4.20645812828   -6.30968719243    2.00000000000
      4.20645812828   -4.20645812828   -6.30968719243    2.00000000000
     -4.20645812828   -4.20645812828   -6.30968719243    2.00000000000
     -2.10322906414    0.00000000000   -8.41291625657    2.00000000000
      0.00000000000    2.10322906414   -8.41291625657    2.00000000000
      2.10322906414    0.00000000000   -8.41291625657    2.00000000000
      0.00000000000   -2.10322906414   -8.41291625657    2.00000000000
     -2.10322906414    2.10322906414    8.41291625657   -2.00000000000
      2.10322906414    2.10322906414    8.41291625657   -2.00000000000
      2.10322906414   -2.10322906414    8.41291625657   -2.00000000000
     -2.10322906414   -2.10322906414    8.41291625657   -2.00000000000
     -6.30968719243    0.00000000000    6.30968719243   -2.00000000000
      0.00000000000    6.30968719243    6.30968719243   -2.00000000000
      6.30968719243    0.00000000000    6.30968719243   -2.00000000000
      0.00000000000   -6.30968719243    6.30968719243   -2.00000000000
     -8.41291625657    2.10322906414    2.10322906414   -2.00000000000
     -2.10322906414    8.41291625657    2.10322906414   -2.00000000000
      2.10322906414    8.41291625657    2.10322906414   -2.00000000000
      8.41291625657    2.10322906414    2.10322906414   -2.00000000000
      8.41291625657   -2.10322906414    2.10322906414   -2.00000000000
      2.10322906414   -8.41291625657    2.10322906414   -2.00000000000
     -2.10322906414   -8.41291625657    2.10322906414   -2.00000000000
     -8.41291625657   -2.10322906414    2.10322906414   -2.00000000000
     -6.30968719243    6.30968719243    0.00000000000   -2.00000000000
      6.30968719243    6.30968719243    0.00000000000   -2.00000000000
      6.30968719243   -6.30968719243    0.00000000000   -2.00000000000
     -6.30968719243   -6.30968719243    0.00000000000   -2.00000000000
     -8.41291625657    2.10322906414   -2.10322906414   -2.00000000000
     -2.10322906414    8.41291625657   -2.10322906414   -2.00000000000
      2.10322906414    8.41291625657   -2.10322906414   -2.00000000000
      8.41291625657    2.10322906414   -2.10322906414   -2.00000000000
      8.41291625657   -2.10322906414   -2.10322906414   -2.00000000000
      2.10322906414   -8.41291625657   -2.10322906414   -2.00000000000
     -2.10322906414   -8.41291625657   -2.10322906414   -2.00000000000
     -8.41291625657   -2.10322906414   -2.10322906414   -2.00000000000
     -6.30968719243    0.00000000000   -6.30968719243   -2.00000000000
      0.00000000000    6.30968719243   -6.30968719243   -2.00000000000
      6.30968719243    0.00000000000   -6.30968719243   -2.00000000000
      0.00000000000   -6.30968719243   -6.30968719243   -2.00000000000
     -2.10322906414    2.10322906414   -8.41291625657   -2.00000000000
      2.10322906414    2.10322906414   -8.41291625657   -2.00000000000
      2.10322906414   -2.10322906414   -8.41291625657   -2.00000000000
     -2.10322906414   -2.10322906414   -8.41291625657   -2.00000000000
     -6.30968719243    2.10322906414    6.30968719243    2.00000000000
     -2.10322906414    6.30968719243    6.30968719243    2.00000000000
      2.10322906414    6.30968719243    6.30968719243    2.00000000000
      6.30968719243    2.10322906414    6.30968719243    2.00000000000
      6.30968719243   -2.10322906414    6.30968719243    2.00000000000
      2.10322906414   -6.30968719243    6.30968719243    2.00000000000
     -2.10322906414   -6.30968719243    6.30968719243    2.00000000000
     -6.30968719243   -2.10322906414    6.30968719243    2.00000000000
     -6.30968719243    6.30968719243    2.10322906414    2.00000000000
      6.30968719243    6.30968719243    2.10322906414    2.00000000000
      6.30968719243   -6.30968719243    2.10322906414    2.00000000000
     -6.30968719243   -6.30968719243    2.10322906414    2.00000000000
     -6.30968719243    6.30968719243   -2.10322906414    2.00000000000
      6.30968719243    6.30968719243   -2.10322906414    2.00000000000
      6.30968719243   -6.30968719243   -2.10322906414    2.00000000000
     -6.30968719243   -6.30968719243   -2.10322906414    2.00000000000
     -6.30968719243    2.10322906414   -6.30968719243    2.00000000000
     -2.10322906414    6.30968719243   -6.30968719243    2.00000000000
      2.10322906414    6.30968719243   -6.30968719243    2.00000000000
      6.30968719243    2.10322906414   -6.30968719243    2.00000000000
      6.30968719243   -2.10322906414   -6.30968719243    2.00000000000
      2.10322906414   -6.30968719243   -6.30968719243    2.00000000000
     -2.10322906414   -6.30968719243   -6.30968719243    2.00000000000
     -6.30968719243   -2.10322906414   -6.30968719243    2.00000000000
     -4.20645812828    0.00000000000    8.41291625657   -2.00000000000
      0.00000000000    4.20645812828    8.41291625657   -2.00000000000
      4.20645812828    0.00000000000    8.41291625657   -2.00000000000
      0.00000000000   -4.20645812828    8.41291625657   -2.00000000000
     -8.41291625657    0.00000000000    4.20645812828   -2.00000000000
      0.00000000000    8.41291625657    4.20645812828   -2.00000000000
      8.41291625657    0.00000000000    4.20645812828   -2.00000000000
      0.00000000000   -8.41291625657    4.20645812828   -2.00000000000
     -8.41291625657    4.20645812828    0.00000000000   -2.00000000000
     -4.20645812828    8.41291625657    0.00000000000   -2.00000000000
      4.20645812828    8.41291625657    0.00000000000   -2.00000000000
      8.41291625657    4.20645812828    0.00000000000   -2.00000000000
      8.41291625657   -4.20645812828    0.00000000000   -2.00000000000
      4.20645812828   -8.41291625657    0.00000000000   -2.00000000000
     -4.20645812828   -8.41291625657    0.00000000000   -2.00000000000
     -8.41291625657   -4.20645812828    0.00000000000   -2.00000000000
     -8.41291625657    0.00000000000   -4.20645812828   -2.00000000000
      0.00000000000    8.41291625657   -4.20645812828   -2.00000000000
      8.41291625657    0.00000000000   -4.20645812828   -2.00000000000
      0.00000000000   -8.41291625657   -4.20645812828   -2.00000000000
     -4.20645812828    0.00000000000   -8.41291625657   -2.00000000000
      0.00000000000    4.20645812828   -8.41291625657   -2.00000000000
      4.20645812828    0.00000000000   -8.41291625657   -2.00000000000
      0.00000000000   -4.20645812828   -8.41291625657   -2.00000000000
     -4.20645812828    2.10322906414    8.41291625657    2.00000000000
     -2.10322906414    4.20645812828    8.41291625657    2.00000000000
      2.10322906414    4.20645812828    8.41291625657    2.00000000000
      4.20645812828    2.10322906414    8.41291625657    2.00000000000
      4.20645812828   -2.10322906414    8.41291625657    2.00000000000
      2.10322906414   -4.20645812828    8.41291625657    2.00000000000
     -2.10322906414   -4.20645812828    8.41291625657    2.00000000000
     -4.20645812828   -2.10322906414    8.41291625657    2.00000000000
     -8.41291625657    2.10322906414    4.20645812828    2.00000000000
     -2.10322906414    8.41291625657    4.20645812828    2.00000000000
      2.10322906414    8.41291625657    4.20645812828    2.00000000000
      8.41291625657    2.10322906414    4.20645812828    2.00000000000
      8.41291625657   -2.10322906414    4.20645812828    2.00000000000
      2.10322906414   -8.41291625657    4.20645812828    2.00000000000
     -2.10322906414   -8.41291625657    4.20645812828    2.00000000000
     -8.41291625657   -2.10322906414    4.20645812828    2.00000000000
     -8.41291625657    4.20645812828    2.10322906414    2.00000000000
     -4.20645812828    8.41291625657    2.10322906414    2.00000000000
      4.20645812828    8.41291625657    2.10322906414    2.00000000000
      8.41291625657    4.20645812828    2.10322906414    2.00000000000
      8.41291625657   -4.20645812828    2.10322906414    2.00000000000
      4.20645812828   -8.41291625657    2.10322906414    2.00000000000
     -4.20645812828   -8.41291625657    2.10322906414    2.00000000000
     -8.41291625657   -4.20645812828    2.10322906414    2.00000000000
     -8.41291625657    4.20645812828   -2.10322906414    2.00000000000
     -4.20645812828    8.41291625657   -2.10322906414    2.00000000000
      4.20645812828    8.41291625657   -2.10322906414    2.00000000000
      8.41291625657    4.20645812828   -2.10322906414    2.00000000000
      8.41291625657   -4.20645812828   -2.10322906414    2.00000000000
      4.20645812828   -8.41291625657   -2.10322906414    2.00000000000
     -4.20645812828   -8.41291625657   -2.10322906414    2.00000000000
     -8.41291625657   -4.20645812828   -2.10322906414    2.00000000000
     -8.41291625657    2.10322906414   -4.20645812828    2.00000000000
     -2.10322906414    8.41291625657   -4.20645812828    2.00000000000
      2.10322906414    8.41291625657   -4.20645812828    2.00000000000
      8.41291625657    2.10322906414   -4.20645812828    2.00000000000
      8.41291625657   -2.10322906414   -4.20645812828    2.00000000000
      2.10322906414   -8.41291625657   -4.20645812828    2.00000000000
     -2.10322906414   -8.41291625657   -4.20645812828    2.00000000000
     -8.41291625657   -2.10322906414   -4.20645812828    2.00000000000
     -4.20645812828    2.10322906414   -8.41291625657    2.00000000000
     -2.10322906414    4.20645812828   -8.41291625657    2.00000000000
      2.10322906414    4.20645812828   -8.41291625657    2.00000000000
      4.20645812828    2.10322906414   -8.41291625657    2.00000000000
      4.20645812828   -2.10322906414   -8.41291625657    2.00000000000
      2.10322906414   -4.20645812828   -8.41291625657    2.00000000000
     -2.10322906414   -4.20645812828   -8.41291625657    2.00000000000
     -4.20645812828   -2.10322906414   -8.41291625657    2.00000000000
      0.00000000000    0.00000000000   10.51614532071    2.00000000000
    -10.51614532071    0.00000000000    0.00000000000    2.00000000000
      0.00000000000   10.51614532071    0.00000000000    2.00000000000
     10.51614532071    0.00000000000    0.00000000000    2.00000000000
      0.00000000000  -10.51614532071    0.00000000000    2.00000000000
      0.00000000000    0.00000000000  -10.51614532071    2.00000000000
     -2.10322906414    0.00000000000   10.51614532071   -2.00000000000
      0.00000000000    2.10322906414   10.51614532071   -2.00000000000
      2.10322906414    0.00000000000   10.51614532071   -2.00000000000
      0.00000000000   -2.10322906414   10.51614532071   -2.00000000000
    -10.51614532071    0.00000000000    2.10322906414   -2.00000000000
      0.00000000000   10.51614532071    2.10322906414   -2.00000000000
     10.51614532071    0.00000000000    2.10322906414   -2.00000000000
      0.00000000000  -10.51614532071    2.10322906414   -2.00000000000
    -10.51614532071    2.10322906414    0.00000000000   -2.00000000000
     -2.10322906414   10.51614532071    0.00000000000   -2.00000000000
      2.10322906414   10.51614532071    0.00000000000   -2.00000000000
     10.51614532071    2.10322906414    0.00000000000   -2.00000000000
     10.51614532071   -2.10322906414    0.00000000000   -2.00000000000
      2.10322906414  -10.51614532071    0.00000000000   -2.00000000000
     -2.10322906414  -10.51614532071    0.00000000000   -2.00000000000
    -10.51614532071   -2.10322906414    0.00000000000   -2.00000000000
    -10.51614532071    0.00000000000   -2.10322906414   -2.00000000000
      0.00000000000   10.51614532071   -2.10322906414   -2.00000000000
     10.51614532071    0.00000000000   -2.10322906414   -2.00000000000
      0.00000000000  -10.51614532071   -2.10322906414   -2.00000000000
     -2.10322906414    0.00000000000  -10.51614532071   -2.00000000000
      0.00000000000    2.10322906414  -10.51614532071   -2.00000000000
      2.10322906414    0.00000000000  -10.51614532071   -2.00000000000
      0.00000000000   -2.10322906414  -10.51614532071   -2.00000000000
     -2.10322906414    2.10322906414   10.51614532071    2.00000000000
      2.10322906414    2.10322906414   10.51614532071    2.00000000000
      2.10322906414   -2.10322906414   10.51614532071    2.00000000000
     -2.10322906414   -2.10322906414   10.51614532071    2.00000000000
    -10.51614532071    2.10322906414    2.10322906414    2.00000000000
     -2.10322906414   10.51614532071    2.10322906414    2.00000000000
      2.10322906414   10.51614532071    2.10322906414    2.00000000000
     10.51614532071    2.10322906414    2.10322906414    2.00000000000
     10.51614532071   -2.10322906414    2.10322906414    2.00000000000
      2.10322906414  -10.51614532071    2.10322906414    2.00000000000
     -2.10322906414  -10.51614532071    2.10322906414    2.00000000000
    -10.51614532071   -2.10322906414    2.10322906414    2.00000000000
    -10.51614532071    2.10322906414   -2.10322906414    2.00000000000
     -2.10322906414   10.51614532071   -2.10322906414    2.00000000000
      2.10322906414   10.51614532071   -2.10322906414    2.00000000000
     10.51614532071    2.10322906414   -2.10322906414    2.00000000000
     10.51614532071   -2.10322906414   -2.10322906414    2.00000000000
      2.10322906414  -10.51614532071   -2.10322906414    2.00000000000
     -2.10322906414  -10.51614532071   -2.10322906414    2.00000000000
    -10.51614532071   -2.10322906414   -2.10322906414    2.00000000000
     -2.10322906414    2.10322906414  -10.51614532071    2.00000000000
      2.10322906414    2.10322906414  -10.51614532071    2.00000000000
      2.10322906414   -2.10322906414  -10.51614532071    2.00000000000
     -2.10322906414   -2.10322906414  -10.51614532071    2.00000000000
     -6.30968719243    4.20645812828    6.30968719243   -2.00000000000
     -4.20645812828    6.30968719243    6.30968719243   -2.00000000000
      4.20645812828    6.30968719243    6.30968719243   -2.00000000000
      6.30968719243    4.20645812828    6.30968719243   -2.00000000000
      6.30968719243   -4.20645812828    6.30968719243   -2.00000000000
      4.20645812828   -6.30968719243    6.30968719243   -2.00000000000
     -4.20645812828   -6.30968719243    6.30968719243   -2.00000000000
     -6.30968719243   -4.20645812828    6.30968719243   -2.00000000000
     -6.30968719243    6.30968719243    4.20645812828   -2.00000000000
      6.30968719243    6.30968719243    4.20645812828   -2.00000000000
      6.30968719243   -6.30968719243    4.20645812828   -2.00000000000
     -6.30968719243   -6.30968719243    4.20645812828   -2.00000000000
     -6.30968719243    6.30968719243   -4.20645812828   -2.00000000000
      6.30968719243    6.30968719243   -4.20645812828   -2.00000000000
      6.30968719243   -6.30968719243   -4.20645812828   -2.00000000000
     -6.30968719243   -6.30968719243   -4.20645812828   -2.00000000000
     -6.30968719243    4.20645812828   -6.30968719243   -2.00000000000
     -4.20645812828    6.30968719243   -6.30968719243   -2.00000000000
      4.20645812828    6.30968719243   -6.30968719243   -2.00000000000
      6.30968719243    4.20645812828   -6.30968719243   -2.00000000000
      6.30968719243   -4.20645812828   -6.30968719243   -2.00000000000
      4.20645812828   -6.30968719243   -6.30968719243   -2.00000000000
     -4.20645812828   -6.30968719243   -6.30968719243   -2.00000000000
     -6.30968719243   -4.20645812828   -6.30968719243   -2.00000000000
     -4.20645812828    4.20645812828    8.41291625657   -2.00000000000
      4.20645812828    4.20645812828    8.41291625657   -2.00000000000
      4.20645812828   -4.20645812828    8.41291625657   -2.00000000000
     -4.20645812828   -4.20645812828    8.41291625657   -2.00000000000
     -8.41291625657    4.20645812828    4.20645812828   -2.00000000000
     -4.20645812828    8.41291625657    4.20645812828   -2.00000000000
      4.20645812828    8.41291625657    4.20645812828   -2.00000000000
      8.41291625657    4.20645812828    4.20645812828   -2.00000000000
      8.41291625657   -4.20645812828    4.20645812828   -2.00000000000
      4.20645812828   -8.41291625657    4.20645812828   -2.00000000000
     -4.20645812828   -8.41291625657    4.20645812828   -2.00000000000
     -8.41291625657   -4.20645812828    4.20645812828   -2.00000000000
     -8.41291625657    4.20645812828   -4.20645812828   -2.00000000000
     -4.20645812828    8.41291625657   -4.20645812828   -2.00000000000
      4.20645812828    8.41291625657   -4.20645812828   -2.00000000000
      8.41291625657    4.20645812828   -4.20645812828   -2.00000000000
      8.41291625657   -4.20645812828   -4.20645812828   -2.00000000000
      4.20645812828   -8.41291625657   -4.20645812828   -2.00000000000
     -4.20645812828   -8.41291625657   -4.20645812828   -2.00000000000
     -8.41291625657   -4.20645812828   -4.20645812828   -2.00000000000
     -4.20645812828    4.20645812828   -8.41291625657   -2.00000000000
      4.20645812828    4.20645812828   -8.41291625657   -2.00000000000
      4.20645812828   -4.20645812828   -8.41291625657   -2.00000000000
     -4.20645812828   -4.20645812828   -8.41291625657   -2.00000000000
     -6.30968719243    0.00000000000    8.41291625657    2.00000000000
      0.00000000000    6.30968719243    8.41291625657    2.00000000000
      6.30968719243    0.00000000000    8.41291625657    2.00000000000
      0.00000000000   -6.30968719243    8.41291625657    2.00000000000
     -8.41291625657    0.00000000000    6.30968719243    2.00000000000
      0.00000000000    8.41291625657    6.30968719243    2.00000000000
      8.41291625657    0.00000000000    6.30968719243    2.00000000000
      0.00000000000   -8.41291625657    6.30968719243    2.00000000000
     -8.41291625657    6.30968719243    0.00000000000    2.00000000000
     -6.30968719243    8.41291625657    0.00000000000    2.00000000000
      6.30968719243    8.41291625657    0.00000000000    2.00000000000
      8.41291625657    6.30968719243    0.00000000000    2.00000000000
      8.41291625657   -6.30968719243    0.00000000000    2.00000000000
      6.30968719243   -8.41291625657    0.00000000000    2.00000000000
     -6.30968719243   -8.41291625657    0.00000000000    2.00000000000
     -8.41291625657   -6.30968719243    0.00000000000    2.00000000000
     -8.41291625657    0.00000000000   -6.30968719243    2.00000000000
      0.00000000000    8.41291625657   -6.30968719243    2.00000000000
      8.41291625657    0.00000000000   -6.30968719243    2.00000000000
      0.00000000000   -8.41291625657   -6.30968719243    2.00000000000
     -6.30968719243    0.00000000000   -8.41291625657    2.00000000000
      0.00000000000    6.30968719243   -8.41291625657    2.00000000000
      6.30968719243    0.00000000000   -8.41291625657    2.00000000000
      0.00000000000   -6.30968719243   -8.41291625657    2.00000000000
     -6.30968719243    2.10322906414    8.41291625657   -2.00000000000
     -2.10322906414    6.30968719243    8.41291625657   -2.00000000000
      2.10322906414    6.30968719243    8.41291625657   -2.00000000000
      6.30968719243    2.10322906414    8.41291625657   -2.00000000000
      6.30968719243   -2.10322906414    8.41291625657   -2.00000000000
      2.10322906414   -6.30968719243    8.41291625657   -2.00000000000
     -2.10322906414   -6.30968719243    8.41291625657   -2.00000000000
     -6.30968719243   -2.10322906414    8.41291625657   -2.00000000000
     -8.41291625657    2.10322906414    6.30968719243   -2.00000000000
     -2.10322906414    8.41291625657    6.30968719243   -2.00000000000
      2.10322906414    8.41291625657    6.30968719243   -2.00000000000
      8.41291625657    2.10322906414    6.30968719243   -2.00000000000
      8.41291625657   -2.10322906414    6.30968719243   -2.00000000000
      2.10322906414   -8.41291625657    6.30968719243   -2.00000000000
     -2.10322906414   -8.41291625657    6.30968719243   -2.00000000000
     -8.41291625657   -2.10322906414    6.30968719243   -2.00000000000
     -8.41291625657    6.30968719243    2.10322906414   -2.00000000000
     -6.30968719243    8.41291625657    2.10322906414   -2.00000000000
      6.30968719243    8.41291625657    2.10322906414   -2.00000000000
      8.41291625657    6.30968719243    2.10322906414   -2.00000000000
      8.41291625657   -6.30968719243    2.10322906414   -2.00000000000
      6.30968719243   -8.41291625657    2.10322906414   -2.00000000000
     -6.30968719243   -8.41291625657    2.10322906414   -2.00000000000
     -8.41291625657   -6.30968719243    2.10322906414   -2.00000000000
     -8.41291625657    6.30968719243   -2.10322906414   -2.00000000000
     -6.30968719243    8.41291625657   -2.10322906414   -2.00000000000
      6.30968719243    8.41291625657   -2.10322906414   -2.00000000000
      8.41291625657    6.30968719243   -2.10322906414   -2.00000000000
      8.41291625657   -6.30968719243   -2.10322906414   -2.00000000000
      6.30968719243   -8.41291625657   -2.10322906414   -2.00000000000
     -6.30968719243   -8.41291625657   -2.10322906414   -2.00000000000
     -8.41291625657   -6.30968719243   -2.10322906414   -2.00000000000
     -8.41291625657    2.10322906414   -6.30968719243   -2.00000000000
     -2.10322906414    8.41291625657   -6.30968719243   -2.00000000000
      2.10322906414    8.41291625657   -6.30968719243   -2.00000000000
      8.41291625657    2.10322906414   -6.30968719243   -2.00000000000
      8.41291625657   -2.10322906414   -6.30968719243   -2.00000000000
      2.10322906414   -8.41291625657   -6.30968719243   -2.00000000000
     -2.10322906414   -8.41291625657   -6.30968719243   -2.00000000000
     -8.41291625657   -2.10322906414   -6.30968719243   -2.00000000000
     -6.30968719243    2.10322906414   -8.41291625657   -2.00000000000
     -2.10322906414    6.30968719243   -8.41291625657   -2.00000000000
      2.10322906414    6.30968719243   -8.41291625657   -2.00000000000
      6.30968719243    2.10322906414   -8.41291625657   -2.00000000000
      6.30968719243   -2.10322906414   -8.41291625657   -2.00000000000
      2.10322906414   -6.30968719243   -8.41291625657   -2.00000000000
     -2.10322906414   -6.30968719243   -8.41291625657   -2.00000000000
     -6.30968719243   -2.10322906414   -8.41291625657   -2.00000000000
     -6.30968719243    6.30968719243    6.30968719243    2.00000000000
      6.30968719243    6.30968719243    6.30968719243    2.00000000000
      6.30968719243   -6.30968719243    6.30968719243    2.00000000000
     -6.30968719243   -6.30968719243    6.30968719243    2.00000000000
     -6.30968719243    6.30968719243   -6.30968719243    2.00000000000
      6.30968719243    6.30968719243   -6.30968719243    2.00000000000
      6.30968719243   -6.30968719243   -6.30968719243    2.00000000000
     -6.30968719243   -6.30968719243   -6.30968719243    2.00000000000
     -4.20645812828    0.00000000000   10.51614532071    2.00000000000
      0.00000000000    4.20645812828   10.51614532071    2.00000000000
      4.20645812828    0.00000000000   10.51614532071    2.00000000000
      0.00000000000   -4.20645812828   10.51614532071    2.00000000000
     -6.30968719243    4.20645812828    8.41291625657    2.00000000000
     -4.20645812828    6.30968719243    8.41291625657    2.00000000000
      4.20645812828    6.30968719243    8.41291625657    2.00000000000
      6.30968719243    4.20645812828    8.41291625657    2.00000000000
      6.30968719243   -4.20645812828    8.41291625657    2.00000000000
      4.20645812828   -6.30968719243    8.41291625657    2.00000000000
     -4.20645812828   -6.30968719243    8.41291625657    2.00000000000
     -6.30968719243   -4.20645812828    8.41291625657    2.00000000000
     -8.41291625657    4.20645812828    6.30968719243    2.00000000000
     -4.20645812828    8.41291625657    6.30968719243    2.00000000000
      4.20645812828    8.41291625657    6.30968719243    2.00000000000
      8.41291625657    4.20645812828    6.30968719243    2.00000000000
      8.41291625657   -4.20645812828    6.30968719243    2.00000000000
      4.20645812828   -8.41291625657    6.30968719243    2.00000000000
     -4.20645812828   -8.41291625657    6.30968719243    2.00000000000
     -8.41291625657   -4.20645812828    6.30968719243    2.00000000000
    -10.51614532071    0.00000000000    4.20645812828    2.00000000000
     -8.41291625657    6.30968719243    4.20645812828    2.00000000000
     -6.30968719243    8.41291625657    4.20645812828    2.00000000000
      0.00000000000   10.51614532071    4.20645812828    2.00000000000
      6.30968719243    8.41291625657    4.20645812828    2.00000000000
      8.41291625657    6.30968719243    4.20645812828    2.00000000000
     10.51614532071    0.00000000000    4.20645812828    2.00000000000
      8.41291625657   -6.30968719243    4.20645812828    2.00000000000
      6.30968719243   -8.41291625657    4.20645812828    2.00000000000
      0.00000000000  -10.51614532071    4.20645812828    2.00000000000
     -6.30968719243   -8.41291625657    4.20645812828    2.00000000000
     -8.41291625657   -6.30968719243    4.20645812828    2.00000000000
    -10.51614532071    4.20645812828    0.00000000000    2.00000000000
     -4.20645812828   10.51614532071    0.00000000000    2.00000000000
      4.20645812828   10.51614532071    0.00000000000    2.00000000000
     10.51614532071    4.20645812828    0.00000000000    2.00000000000
     10.51614532071   -4.20645812828    0.00000000000    2.00000000000
      4.20645812828  -10.51614532071    0.00000000000    2.00000000000
     -4.20645812828  -10.51614532071    0.00000000000    2.00000000000
    -10.51614532071   -4.20645812828    0.00000000000    2.00000000000
    -10.51614532071    0.00000000000   -4.20645812828    2.00000000000
     -8.41291625657    6.30968719243   -4.20645812828    2.00000000000
     -6.30968719243    8.41291625657   -4.20645812828    2.00000000000
      0.00000000000   10.51614532071   -4.20645812828    2.00000000000
      6.30968719243    8.41291625657   -4.20645812828    2.00000000000
      8.41291625657    6.30968719243   -4.20645812828    2.00000000000
     10.51614532071    0.00000000000   -4.20645812828    2.00000000000
      8.41291625657   -6.30968719243   -4.20645812828    2.00000000000
      6.30968719243   -8.41291625657   -4.20645812828    2.00000000000
      0.00000000000  -10.51614532071   -4.20645812828    2.00000000000
     -6.30968719243   -8.41291625657   -4.20645812828    2.00000000000
     -8.41291625657   -6.30968719243   -4.20645812828    2.00000000000
     -8.41291625657    4.20645812828   -6.30968719243    2.00000000000
     -4.20645812828    8.41291625657   -6.30968719243    2.00000000000
      4.20645812828    8.41291625657   -6.30968719243    2.00000000000
      8.41291625657    4.20645812828   -6.30968719243    2.00000000000
      8.41291625657   -4.20645812828   -6.30968719243    2.00000000000
      4.20645812828   -8.41291625657   -6.30968719243    2.00000000000
     -4.20645812828   -8.41291625657   -6.30968719243    2.00000000000
     -8.41291625657   -4.20645812828   -6.30968719243    2.00000000000
     -6.30968719243    4.20645812828   -8.41291625657    2.00000000000
     -4.20645812828    6.30968719243   -8.41291625657    2.00000000000
      4.20645812828    6.30968719243   -8.41291625657    2.00000000000
      6.30968719243    4.20645812828   -8.41291625657    2.00000000000
      6.30968719243   -4.20645812828   -8.41291625657    2.00000000000
      4.20645812828   -6.30968719243   -8.41291625657    2.00000000000
     -4.20645812828   -6.30968719243   -8.41291625657    2.00000000000
     -6.30968719243   -4.20645812828   -8.41291625657    2.00000000000
     -4.20645812828    0.00000000000  -10.51614532071    2.00000000000
      0.00000000000    4.20645812828  -10.51614532071    2.00000000000
      4.20645812828    0.00000000000  -10.51614532071    2.00000000000
      0.00000000000   -4.20645812828  -10.51614532071    2.00000000000
     -4.20645812828    2.10322906414   10.51614532071   -2.00000000000
     -2.10322906414    4.20645812828   10.51614532071   -2.00000000000
      2.10322906414    4.20645812828   10.51614532071   -2.00000000000
      4.20645812828    2.10322906414   10.51614532071   -2.00000000000
      4.20645812828   -2.10322906414   10.51614532071   -2.00000000000
      2.10322906414   -4.20645812828   10.51614532071   -2.00000000000
     -2.10322906414   -4.20645812828   10.51614532071   -2.00000000000
     -4.20645812828   -2.10322906414   10.51614532071   -2.00000000000
    -10.51614532071    2.10322906414    4.20645812828   -2.00000000000
     -2.10322906414   10.51614532071    4.20645812828   -2.00000000000
      2.10322906414   10.51614532071    4.20645812828   -2.00000000000
     10.51614532071    2.10322906414    4.20645812828   -2.00000000000
     10.51614532071   -2.10322906414    4.20645812828   -2.00000000000
      2.10322906414  -10.51614532071    4.20645812828   -2.00000000000
     -2.10322906414  -10.51614532071    4.20645812828   -2.00000000000
    -10.51614532071   -2.10322906414    4.20645812828   -2.00000000000
    -10.51614532071    4.20645812828    2.10322906414   -2.00000000000
     -4.20645812828   10.51614532071    2.10322906414   -2.00000000000
      4.20645812828   10.51614532071    2.10322906414   -2.00000000000
     10.51614532071    4.20645812828    2.10322906414   -2.00000000000
     10.51614532071   -4.20645812828    2.10322906414   -2.00000000000
      4.20645812828  -10.51614532071    2.10322906414   -2.00000000000
     -4.20645812828  -10.51614532071    2.10322906414   -2.00000000000
    -10.51614532071   -4.20645812828    2.10322906414   -2.00000000000
    -10.51614532071    4.20645812828   -2.10322906414   -2.00000000000
     -4.20645812828   10.51614532071   -2.10322906414   -2.00000000000
      4.20645812828   10.51614532071   -2.10322906414   -2.00000000000
     10.51614532071    4.20645812828   -2.10322906414   -2.00000000000
     10.51614532071   -4.20645812828   -2.10322906414   -2.00000000000
      4.20645812828  -10.51614532071   -2.10322906414   -2.00000000000
     -4.20645812828  -10.51614532071   -2.10322906414   -2.00000000000
    -10.51614532071   -4.20645812828   -2.10322906414   -2.00000000000
    -10.51614532071    2.10322906414   -4.20645812828   -2.00000000000
     -2.10322906414   10.51614532071   -4.20645812828   -2.00000000000
      2.10322906414   10.51614532071   -4.20645812828   -2.00000000000
     10.51614532071    2.10322906414   -4.20645812828   -2.00000000000
     10.51614532071   -2.10322906414   -4.20645812828   -2.00000000000
      2.10322906414  -10.51614532071   -4.20645812828   -2.00000000000
     -2.10322906414  -10.51614532071   -4.20645812828   -2.00000000000
    -10.51614532071   -2.10322906414   -4.20645812828   -2.00000000000
     -4.20645812828    2.10322906414  -10.51614532071   -2.00000000000
     -2.10322906414    4.20645812828  -10.51614532071   -2.00000000000
      2.10322906414    4.20645812828  -10.51614532071   -2.00000000000
      4.20645812828    2.10322906414  -10.51614532071   -2.00000000000
      4.20645812828   -2.10322906414  -10.51614532071   -2.00000000000
      2.10322906414   -4.20645812828  -10.51614532071   -2.00000000000
     -2.10322906414   -4.20645812828  -10.51614532071   -2.00000000000
     -4.20645812828   -2.10322906414  -10.51614532071   -2.00000000000
     -8.41291625657    0.00000000000    8.41291625657   -2.00000000000
      0.00000000000    8.41291625657    8.41291625657   -2.00000000000
      8.41291625657    0.00000000000    8.41291625657   -2.00000000000
      0.00000000000   -8.41291625657    8.41291625657   -2.00000000000
     -8.41291625657    8.41291625657    0.00000000000   -2.00000000000
      8.41291625657    8.41291625657    0.00000000000   -2.00000000000
      8.41291625657   -8.41291625657    0.00000000000   -2.00000000000
     -8.41291625657   -8.41291625657    0.00000000000   -2.00000000000
     -8.41291625657    0.00000000000   -8.41291625657   -2.00000000000
      0.00000000000    8.41291625657   -8.41291625657   -2.00000000000
      8.41291625657    0.00000000000   -8.41291625657   -2.00000000000
      0.00000000000   -8.41291625657   -8.41291625657   -2.00000000000
     -4.20645812828    4.20645812828   10.51614532071    2.00000000000
      4.20645812828    4.20645812828   10.51614532071    2.00000000000
      4.20645812828   -4.20645812828   10.51614532071    2.00000000000
[...]
 tol*100>norm                   758  7.778141842756063E-003
 tol*100>norm                   998  7.775970301745642E-003
 tol*100>norm                  1078  7.639403450003340E-003
 tol*100>norm                  1158  7.773329518255172E-003
 tol*100>norm                  1238  7.779345656681708E-003
 tol*100>norm                  1318  7.772496734460800E-003
 tol*100>norm                  1478  7.469625537642856E-003
 tol*100>norm                  1798  7.471055280613930E-003
 avg/min projected vLNO norm    1.0000E+00    1.0000E+00
 Number of Cholesky vectors:      6
 MP2 energy in LIS [au]:         -0.075725832521
 Correction for frozen LNO [au]: -0.000891376048     (1.163%)
 Number of NAFs:                458   (6.21%)
 CPU time [min]: 24101.904                   Wall time [min]:   422.744
 

 Direct DF-CCSD(T) calculation
 
 Convergence criterion:  1.0E-05
 
 Number of occupied/virtual/auxiliary orbitals:    27   124   458
    676.48 MB is the minimal memory requirement for (T)
    508.45 MB is the minimal memory requirement for CCSD
 
 MP2 correlation energy [au]:        -0.760926183519
 
 LMP2 domain correlation energy contribution [au]:       -0.075724151949
 
 CPU time [min]: 24102.073                   Wall time [min]:   422.746
 
 
 Starting CCSD iterations...
 
                     Residual norm       Correlation Energy
 Iteration  1        0.221143960769       -0.774186729783
 Iteration  2        0.054072085184       -0.792623856605
 Iteration  3        0.017127222972       -0.794266598562
 Iteration  4        0.003792737801       -0.794100616263
 Iteration  5        0.001138305245       -0.794107859146
 Iteration  6        0.000248435455       -0.794110745357
 Iteration  7        0.000075445125       -0.794110781574
 
 CCSD iteration has converged in  7 steps.
     1391.51 MB memory was utilized by CCSD
 
 T1 diagnostic:      9.534E-03            D1 diagnostic:      2.779E-02
 
 CCSD correlation energy [au]:          -0.074850870963
 
 CPU time [min]: 24108.521                   Wall time [min]:   422.841
 
 Calculation of (T) correction...
 
 Laplace threshold, nquadmin:  1.00E-02   3
 Number of quadrature points:    3
 
     1059.29 MB memory is utilized for (T)

 0%       25%       50%       75%       100%
 |---------|---------|---------|---------| 
 
 (T) correction [au]:                   -0.002980625869
 CCSD(T) correlation energy [au]:       -0.077831496831
 
 CPU time [min]: 24122.888                   Wall time [min]:   423.047
 
 MO:    95
 Number of atoms in domain:      25
 Number of atomic orbitals:    1874
 Number of atoms for local DF:   25
 Number of fitting functions:  7379 (100.00%)
 Warning: drop high-lying PAOs                     1
 Number of occupied orbitals:    47
 Number of virtual  orbitals:  1752
 Number of Cholesky vectors:      8
 MP2 energy in ED [au]:          -0.076616261213
 Number of occupied LNOs:        27  (57.45%)
 Number of virtual  LNOs:       124   (7.08%)
dropped smallnorm   199   200   1.82479409E-05
dropped smallnorm   203   205   7.82582604E-06
dropped smallnorm   203   206   5.41677989E-05
dropped smallnorm   203   207   1.27797302E-05
dropped smallnorm   372   377   1.60897888E-05
dropped smallnorm   376   382   5.55451576E-05
dropped smallnorm   376   383   9.24978966E-06
dropped smallnorm   376   384   9.44281735E-06
 tol*100>norm                   518  7.782640488038603E-003
 tol*100>norm                   758  7.775186558251443E-003
 tol*100>norm                   838  7.776522277342621E-003
 tol*100>norm                  1078  7.773022089123527E-003
 tol*100>norm                  1158  7.639177640320724E-003
 tol*100>norm                  1238  7.775180202099753E-003
 tol*100>norm                  1318  7.776650737412922E-003
 tol*100>norm                  1558  7.469167026580820E-003
 tol*100>norm                  1798  7.471061920231807E-003
 avg/min projected vLNO norm    1.0000E+00    1.0000E+00
 Number of Cholesky vectors:      6
 MP2 energy in LIS [au]:         -0.075725078113
 Correction for frozen LNO [au]: -0.000891183100     (1.163%)
 Number of NAFs:                458   (6.21%)
 CPU time [min]: 24430.831                   Wall time [min]:   428.749
 

 Direct DF-CCSD(T) calculation
 
 Convergence criterion:  1.0E-05
 
 Number of occupied/virtual/auxiliary orbitals:    27   124   458
    676.48 MB is the minimal memory requirement for (T)
    508.45 MB is the minimal memory requirement for CCSD
 
 MP2 correlation energy [au]:        -0.760753464245
 
 LMP2 domain correlation energy contribution [au]:       -0.075723401847
 
 CPU time [min]: 24431.007                   Wall time [min]:   428.751
 
 
 Starting CCSD iterations...
 
                     Residual norm       Correlation Energy
 Iteration  1        0.221126278332       -0.774028651555
 Iteration  2        0.054066055552       -0.792466492983
 Iteration  3        0.017125114982       -0.794108743065
 Iteration  4        0.003792615124       -0.793942718606
 Iteration  5        0.001138356971       -0.793949954271
 Iteration  6        0.000248475289       -0.793952830125
 Iteration  7        0.000075452758       -0.793952866381
 
 CCSD iteration has converged in  7 steps.
     1391.51 MB memory was utilized by CCSD
 
 T1 diagnostic:      9.534E-03            D1 diagnostic:      2.778E-02
 
 CCSD correlation energy [au]:          -0.074850143288
 
 CPU time [min]: 24437.443                   Wall time [min]:   428.846
 
 Calculation of (T) correction...
 
 Laplace threshold, nquadmin:  1.00E-02   3
 Number of quadrature points:    3
 
     1059.29 MB memory is utilized for (T)

 0%       25%       50%       75%       100%
 |---------|---------|---------|---------| 
 
 (T) correction [au]:                   -0.002980596132
 CCSD(T) correlation energy [au]:       -0.077830739420
 
 CPU time [min]: 24451.693                   Wall time [min]:   429.050
 
 MO:    96
 Number of atoms in domain:      25
 Number of atomic orbitals:    1874
 Number of atoms for local DF:   25
 Number of fitting functions:  7379 (100.00%)
 Warning: drop high-lying PAOs                     1
 Number of occupied orbitals:    47
 Number of virtual  orbitals:  1752
 Number of Cholesky vectors:      8
 MP2 energy in ED [au]:          -0.076617022590
 Number of occupied LNOs:        27  (57.45%)
 Number of virtual  LNOs:       124   (7.08%)
dropped smallnorm   140   141   1.62970419E-05
dropped smallnorm   144   146   7.69619317E-06
dropped smallnorm   144   147   9.08554234E-06
dropped smallnorm   144   148   5.46651614E-05
dropped smallnorm   372   377   1.60960886E-05
dropped smallnorm   376   382   5.56847733E-05
dropped smallnorm   376   383   9.52698865E-06
dropped smallnorm   376   384   9.29284962E-06
 tol*100>norm                   438  7.777852047971164E-003
 tol*100>norm                   758  7.775146191419332E-003
 tol*100>norm                   998  7.772982017282682E-003
 tol*100>norm                  1078  7.639403624596558E-003
 tol*100>norm                  1158  7.776321326784734E-003
 tol*100>norm                  1238  7.783085936145974E-003
 tol*100>norm                  1318  7.775484252701300E-003
 tol*100>norm                  1478  7.469631236600743E-003
 tol*100>norm                  1798  7.471056836095686E-003
 avg/min projected vLNO norm    1.0000E+00    1.0000E+00
 Number of Cholesky vectors:      6
 MP2 energy in LIS [au]:         -0.075725585772
 Correction for frozen LNO [au]: -0.000891436818     (1.163%)
 Number of NAFs:                458   (6.21%)
 CPU time [min]: 24758.810                   Wall time [min]:   434.744
 

 Direct DF-CCSD(T) calculation
 
 Convergence criterion:  1.0E-05
 
 Number of occupied/virtual/auxiliary orbitals:    27   124   458
    676.48 MB is the minimal memory requirement for (T)
    508.45 MB is the minimal memory requirement for CCSD
 
 MP2 correlation energy [au]:        -0.760798980842
 
 LMP2 domain correlation energy contribution [au]:       -0.075723913150
 
 CPU time [min]: 24758.980                   Wall time [min]:   434.746
 
 
 Starting CCSD iterations...
 
                     Residual norm       Correlation Energy
 Iteration  1        0.221125500832       -0.774069725828
 Iteration  2        0.054065238435       -0.792507206201
 Iteration  3        0.017125688018       -0.794149225445
 Iteration  4        0.003792591053       -0.793983181183
 Iteration  5        0.001138299284       -0.793990415152
 Iteration  6        0.000248433261       -0.793993282307
 Iteration  7        0.000075436035       -0.793993316914
 
 CCSD iteration has converged in  7 steps.
     1391.51 MB memory was utilized by CCSD
 
 T1 diagnostic:      9.533E-03            D1 diagnostic:      2.778E-02
 
 CCSD correlation energy [au]:          -0.074850559155
 
 CPU time [min]: 24765.347                   Wall time [min]:   434.840
 
 Calculation of (T) correction...
 
 Laplace threshold, nquadmin:  1.00E-02   3
 Number of quadrature points:    3
 
     1059.29 MB memory is utilized for (T)

 0%       25%       50%       75%       100%
 |---------|---------|---------|---------| 
 
 (T) correction [au]:                   -0.002980632043
 CCSD(T) correlation energy [au]:       -0.077831191198
 
 CPU time [min]: 24779.312                   Wall time [min]:   435.039
 
 MO:    97
 Number of atoms in domain:      25
 Number of atomic orbitals:    1874
 Number of atoms for local DF:   25
 Number of fitting functions:  7379 (100.00%)
 Warning: drop high-lying PAOs                     1
 Number of occupied orbitals:    97
 Number of virtual  orbitals:  1752
 Number of Cholesky vectors:      8
 MP2 energy in ED [au]:          -0.058478267335
 Number of occupied LNOs:        85  (87.63%)
 Number of virtual  LNOs:       315  (17.98%)
dropped smallnorm    81    82   1.78375370E-05
dropped smallnorm    85    87   5.25093355E-05
dropped smallnorm    85    88   1.19588288E-05
dropped smallnorm    85    89   7.38684061E-06
dropped smallnorm   136   141   1.59102743E-05
dropped smallnorm   140   146   7.33614711E-06
dropped smallnorm   140   147   8.47420618E-06
dropped smallnorm   140   148   5.31768642E-05
dropped smallnorm   191   200   1.78507978E-05
dropped smallnorm   195   205   7.40104660E-06
dropped smallnorm   195   206   5.25146572E-05
dropped smallnorm   195   207   1.19931576E-05
dropped smallnorm   246   259   1.78855599E-05
dropped smallnorm   250   264   1.20744235E-05
dropped smallnorm   250   265   7.43661546E-06
dropped smallnorm   250   266   5.25244342E-05
dropped smallnorm   301   318   1.57029927E-05
dropped smallnorm   305   323   8.78367689E-06
dropped smallnorm   305   324   5.40170687E-05
dropped smallnorm   305   325   8.82560448E-06
dropped smallnorm   356   377   1.57073327E-05
dropped smallnorm   360   382   5.40501715E-05
dropped smallnorm   360   383   8.85552972E-06
dropped smallnorm   360   384   8.81275349E-06
 tol*100>norm                   438  7.630136311003817E-003
 tol*100>norm                   518  7.629992560039560E-003
 tol*100>norm                   598  7.629734010536484E-003
 tol*100>norm                   678  7.630108710389660E-003
 tol*100>norm                   758  7.630302029113219E-003
 tol*100>norm                   838  7.629677796719676E-003
 tol*100>norm                   918  7.630173542219456E-003
 tol*100>norm                   998  7.630381251417994E-003
 tol*100>norm                  1078  7.630374448931235E-003
 tol*100>norm                  1158  7.630150148441071E-003
 tol*100>norm                  1238  7.630416446190637E-003
 tol*100>norm                  1318  7.630444564645853E-003
 tol*100>norm                  1398  7.469412473508205E-003
 tol*100>norm                  1478  7.468550597730989E-003
 tol*100>norm                  1558  7.468116301574998E-003
 tol*100>norm                  1638  7.469264944428121E-003
 tol*100>norm                  1718  7.470106276707519E-003
 tol*100>norm                  1798  7.470371510306460E-003
 avg/min projected vLNO norm    1.0000E+00    9.9998E-01
 Number of Cholesky vectors:      6
 MP2 energy in LIS [au]:         -0.056445858252
 Correction for frozen LNO [au]: -0.002032409083     (3.475%)
 Number of NAFs:               1289  (17.47%)
 CPU time [min]: 25445.821                   Wall time [min]:   448.865
 

 Direct DF-CCSD(T) calculation
 
 Convergence criterion:  1.0E-05
 
 Number of occupied/virtual/auxiliary orbitals:    85   315  1289
  13131.62 MB is the minimal memory requirement for (T)
   9418.47 MB is the minimal memory requirement for CCSD
 
 MP2 correlation energy [au]:        -2.809261571432
 
 LMP2 domain correlation energy contribution [au]:       -0.056444288729
 
 CPU time [min]: 25451.855                   Wall time [min]:   448.993
 
 
 Starting CCSD iterations...
 
                     Residual norm       Correlation Energy
 Iteration  1        0.381009382821       -2.752776103980
 Iteration  2        0.112642083068       -2.816018497855
 Iteration  3        0.040344946114       -2.829618603820
 Iteration  4        0.008136726199       -2.829208453147
 Iteration  5        0.002787648179       -2.829067487353
 Iteration  6        0.000721817988       -2.829188917984
 Iteration  7        0.000286024020       -2.829192565078
 Iteration  8        0.000092880557       -2.829178648536
 Iteration  9        0.000029212205       -2.829176434529
 Iteration 10        0.000008402178       -2.829176731420
 
 CCSD iteration has converged in 10 steps.
    47164.98 MB memory was utilized by CCSD
 
 T1 diagnostic:      1.119E-02            D1 diagnostic:      3.798E-02
 
 CCSD correlation energy [au]:          -0.059244534157
 
 CPU time [min]: 26483.360                   Wall time [min]:   465.806
 
 Calculation of (T) correction...
 
 Laplace threshold, nquadmin:  1.00E-02   3
 Number of quadrature points:    3
 
    37160.62 MB memory is utilized for (T)

 0%       25%       50%       75%       100%
 |---------|---------|---------|---------| 
 
 (T) correction [au]:                   -0.004093993976
 CCSD(T) correlation energy [au]:       -0.063338528133
 
 CPU time [min]: 28503.307                   Wall time [min]:   494.300
 
 **********************************************************************
 Dimensions of the extended domains:    Minimum / Average / Maximum
 
 Number of atoms in domain:                  25      25.0        25
 Number of atomic orbitals:                1874    1874.0      1874
 Number of fitting functions:              7379    7379.0      7379
 Number of occupied localized MOs:           25      36.1        97
 Number of PAOs:                           1752    1752.0      1752
 Number of occupied LNOs:                    10      20.3        85
 Number of virtual  LNOs:                    25      92.1       315
 Number of NAFs:                             91     335.1      1289
 
 **********************************************************************
 Distant (and weak) pair contributions, corrections
 
 Sum of pair energies [au]:                    -0.006657651143    (0.114%)
 Sum of energy corrections [au]:               -0.069906960070    (1.194%)
 Pair energies + LNO corrections [au]:         -0.076564611214
 Sum of LMP2 contributions [au]:               -5.854224229658
 
 **********************************************************************
  Time of manipulations in the EDs:      max CPU/Wall [s]  all CPU/Wall [min]
 
 PD construction & multipole pair E    7056.65   103.09   117.61     1.72
 Construct MO basis of the ED            99.73     1.32   143.72     1.90
 (mu,nu|P) evaluation & trf 2 (ai|P)   8824.65   165.11  7586.76   111.56
 Evaluate MP2 energy of the ED         1264.75    16.71   723.92     9.57
 Transformations to the LNO basis       697.89     9.57   304.87     4.10
 Build W_PQ (Jai or Jpi part)            51.46     0.86    31.21     0.63
 Evaluate MP2 energy of the LIS          45.32     0.60     4.24     0.06
 (mu,nu|P) evaluation & trf 2 J(abQ)  28829.55   628.77 15272.80   300.68
 Total of the above for all EDs       39813.34   822.93 24067.51   428.49
 
 **********************************************************************
 Maximum memory requirement [MB]:       
 
 PD construction & multipole pair E        437.3
 AO integral evaluation in the EDs       13698.4
 (mu,nu|P) evaluation & trf 2 (aI|P)     42758.9
 Evaluate MP2 energy in the EDs          22218.0
 Transformation to the LNO basis          7150.6
 (mu,nu|P) to Jab transformation         18613.9
 Evaluate MP2 energy in the LIS           7581.7
 Minimum requirement for LIS CCSD         9418.5
 Actually allocated  for LIS CCSD        47165.0
 Minimum requirement for LIS (T)         13131.8
 Actually allocated  for LIS (T)         37160.6
 
 ======================================================================
 ======================================================================
 
 
 
 ======================================================================
 ======================================================================
 
 Final local CC results:
 
 Minimum number of correlated electrons:        20       ( 10.3%)
 Maximum number of correlated electrons:       170       ( 87.6%)
 Average number of correlated electrons:        40.5     ( 20.9%)
 Minimum number of correlated orbitals:         35       (  1.9%)
 Maximum number of correlated orbitals:        400       ( 21.6%)
 Average number of correlated orbitals:        112.4     (  6.1%)
 
 CPU time for integral calculations [min]:                 81.167
 Wall time for integral calculations [min]:                32.780
 
 CPU time for SCF calculation [min]:                     2588.479
 Wall time for SCF calculation [min]:                      34.555
 
 CPU time for orbital localization [min]:                   0.740
 Wall time for orbital localization [min]:                  0.116
 
 CPU time for integral transformations [min]:           24409.903
 Wall time for integral transformations [min]:            433.776
 
 Reference energy [au]:                                -12207.201340349136
 
 LMP2 correlation energy [au]:                             -5.854224229658
 Total LMP2 energy [au]:                               -12213.055564578794
 
 Total MP2 correction for dropped NAFs [au]:               -0.000018622713
 Total MP2 correction [au]:                                -0.076583233927
 
 CPU time for CCSD calculations [min]:                   1364.847
 Total CPU time for CCSD [min]:                         28445.136
 Wall time for CCSD calculations [min]:                    21.769
 Total wall time for CCSD [min]:                          522.996
 
 CCSD correlation energy [au]:                             -5.731423120398
 Total CCSD energy [au]:                               -12212.932763469535
 CCSD correlation energy + 0.5 MP2 corrections [au]:       -5.769714737361
 Total LNO-CCSD energy with MP2 corrections [au]:      -12212.971055086498
 
 CPU time for (T) corrections [min]:                     2728.561
 Total CPU time for CCSD(T) [min]:                      31173.696
 Wall time for (T) corrections [min]:                      38.755
 Total wall time for CCSD(T) [min]:                       561.751
 
 Total (T) correlation energy contribution [au]:           -0.213718666270
 Total (T) correlation energy+0.5 MP2 correction [au]:     -0.252010283234
 CCSD(T) correlation energy [au]:                          -5.945141786668
 Total CCSD(T) energy [au]:                            -12213.146482135804
 CCSD(T) correlation energy + MP2 corrections [au]:        -6.021725020595
 Total LNO-CCSD(T) energy with MP2 corrections [au]:   -12213.223065369732
 
 ======================================================================
 ======================================================================
 
 ************************ 2021-11-04 17:54:54 *************************
                      Normal termination of mrcc.
 **********************************************************************
