
                                 *****************
                                 * O   R   C   A *
                                 *****************

                                            #,                                       
                                            ###                                      
                                            ####                                     
                                            #####                                    
                                            ######                                   
                                           ########,                                 
                                     ,,################,,,,,                         
                               ,,#################################,,                 
                          ,,##########################################,,             
                       ,#########################################, ''#####,          
                    ,#############################################,,   '####,        
                  ,##################################################,,,,####,       
                ,###########''''           ''''###############################       
              ,#####''   ,,,,##########,,,,          '''####'''          '####       
            ,##' ,,,,###########################,,,                        '##       
           ' ,,###''''                  '''############,,,                           
         ,,##''                                '''############,,,,        ,,,,,,###''
      ,#''                                            '''#######################'''  
     '                                                          ''''####''''         
             ,#######,   #######,   ,#######,      ##                                
            ,#'     '#,  ##    ##  ,#'     '#,    #''#        ######   ,####,        
            ##       ##  ##   ,#'  ##            #'  '#       #        #'  '#        
            ##       ##  #######   ##           ,######,      #####,   #    #        
            '#,     ,#'  ##    ##  '#,     ,#' ,#      #,         ##   #,  ,#        
             '#######'   ##     ##  '#######'  #'      '#     #####' # '####'        



                  #######################################################
                  #                        -***-                        #
                  #          Department of theory and spectroscopy      #
                  #    Directorship and core code : Frank Neese         #
                  #        Max Planck Institute fuer Kohlenforschung    #
                  #                Kaiser Wilhelm Platz 1               #
                  #                 D-45470 Muelheim/Ruhr               #
                  #                      Germany                        #
                  #                                                     #
                  #                  All rights reserved                #
                  #                        -***-                        #
                  #######################################################


                         Program Version 5.0.2 -  RELEASE  -


 With contributions from (in alphabetic order):
   Daniel Aravena         : Magnetic Suceptibility
   Michael Atanasov       : Ab Initio Ligand Field Theory (pilot matlab implementation)
   Alexander A. Auer      : GIAO ZORA, VPT2 properties, NMR spectrum
   Ute Becker             : Parallelization
   Giovanni Bistoni       : ED, misc. LED, open-shell LED, HFLD
   Martin Brehm           : Molecular dynamics
   Dmytro Bykov           : SCF Hessian
   Vijay G. Chilkuri      : MRCI spin determinant printing, contributions to CSF-ICE
   Dipayan Datta          : RHF DLPNO-CCSD density
   Achintya Kumar Dutta   : EOM-CC, STEOM-CC
   Dmitry Ganyushin       : Spin-Orbit,Spin-Spin,Magnetic field MRCI
   Miquel Garcia          : C-PCM and meta-GGA Hessian, CC/C-PCM, Gaussian charge scheme
   Yang Guo               : DLPNO-NEVPT2, F12-NEVPT2, CIM, IAO-localization
   Andreas Hansen         : Spin unrestricted coupled pair/coupled cluster methods
   Benjamin Helmich-Paris : MC-RPA, TRAH-SCF, COSX integrals
   Lee Huntington         : MR-EOM, pCC
   Robert Izsak           : Overlap fitted RIJCOSX, COSX-SCS-MP3, EOM
   Marcus Kettner         : VPT2
   Christian Kollmar      : KDIIS, OOCD, Brueckner-CCSD(T), CCSD density, CASPT2, CASPT2-K
   Simone Kossmann        : Meta GGA functionals, TD-DFT gradient, OOMP2, MP2 Hessian
   Martin Krupicka        : Initial AUTO-CI
   Lucas Lang             : DCDCAS
   Marvin Lechner         : AUTO-CI (C++ implementation), FIC-MRCC
   Dagmar Lenk            : GEPOL surface, SMD
   Dimitrios Liakos       : Extrapolation schemes; Compound Job, initial MDCI parallelization
   Dimitrios Manganas     : Further ROCIS development; embedding schemes
   Dimitrios Pantazis     : SARC Basis sets
   Anastasios Papadopoulos: AUTO-CI, single reference methods and gradients
   Taras Petrenko         : DFT Hessian,TD-DFT gradient, ASA, ECA, R-Raman, ABS, FL, XAS/XES, NRVS
   Peter Pinski           : DLPNO-MP2, DLPNO-MP2 Gradient
   Christoph Reimann      : Effective Core Potentials
   Marius Retegan         : Local ZFS, SOC
   Christoph Riplinger    : Optimizer, TS searches, QM/MM, DLPNO-CCSD(T), (RO)-DLPNO pert. Triples
   Tobias Risthaus        : Range-separated hybrids, TD-DFT gradient, RPA, STAB
   Michael Roemelt        : Original ROCIS implementation
   Masaaki Saitow         : Open-shell DLPNO-CCSD energy and density
   Barbara Sandhoefer     : DKH picture change effects
   Avijit Sen             : IP-ROCIS
   Kantharuban Sivalingam : CASSCF convergence, NEVPT2, FIC-MRCI
   Bernardo de Souza      : ESD, SOC TD-DFT
   Georgi Stoychev        : AutoAux, RI-MP2 NMR, DLPNO-MP2 response
   Willem Van den Heuvel  : Paramagnetic NMR
   Boris Wezisla          : Elementary symmetry handling
   Frank Wennmohs         : Technical directorship


 We gratefully acknowledge several colleagues who have allowed us to
 interface, adapt or use parts of their codes:
   Stefan Grimme, W. Hujo, H. Kruse, P. Pracht,  : VdW corrections, initial TS optimization,
                  C. Bannwarth, S. Ehlert          DFT functionals, gCP, sTDA/sTD-DF
   Ed Valeev, F. Pavosevic, A. Kumar             : LibInt (2-el integral package), F12 methods
   Garnet Chan, S. Sharma, J. Yang, R. Olivares  : DMRG
   Ulf Ekstrom                                   : XCFun DFT Library
   Mihaly Kallay                                 : mrcc  (arbitrary order and MRCC methods)
   Jiri Pittner, Ondrej Demel                    : Mk-CCSD
   Frank Weinhold                                : gennbo (NPA and NBO analysis)
   Christopher J. Cramer and Donald G. Truhlar   : smd solvation model
   Lars Goerigk                                  : TD-DFT with DH, B97 family of functionals
   V. Asgeirsson, H. Jonsson                     : NEB implementation
   FAccTs GmbH                                   : IRC, NEB, NEB-TS, DLPNO-Multilevel, CI-OPT
                                                   MM, QMMM, 2- and 3-layer-ONIOM, Crystal-QMMM,
                                                   LR-CPCM, SF, NACMEs, symmetry and pop. for TD-DFT,
                                                   nearIR, NL-DFT gradient (VV10), updates on ESD,
                                                   ML-optimized integration grids
   S Lehtola, MJT Oliveira, MAL Marques          : LibXC Library
   Liviu Ungur et al                             : ANISO software


 Your calculation uses the libint2 library for the computation of 2-el integrals
 For citations please refer to: http://libint.valeyev.net

 Your ORCA version has been built with support for libXC version: 5.1.0
 For citations please refer to: https://tddft.org/programs/libxc/

 This ORCA versions uses:
   CBLAS   interface :  Fast vector & matrix operations
   LAPACKE interface :  Fast linear algebra routines
   SCALAPACK package :  Parallel linear algebra routines
   Shared memory     :  Shared parallel matrices
   BLAS/LAPACK       :  OpenBLAS 0.3.15  USE64BITINT DYNAMIC_ARCH NO_AFFINITY Zen SINGLE_THREADED
        Core in use  :  Zen
   Copyright (c) 2011-2014, The OpenBLAS Project


SCAN-COORDS
================================================================================

----- Orbital basis set information -----
Your calculation utilizes the basis: def2-TZVPP
   F. Weigend and R. Ahlrichs, Phys. Chem. Chem. Phys. 7, 3297 (2005).

----- AuxJ basis set information -----
Your calculation utilizes the auxiliary basis: def2/J
   F. Weigend, Phys. Chem. Chem. Phys. 8, 1057 (2006).

================================================================================
                                        WARNINGS
                       Please study these warnings very carefully!
================================================================================

WARNING: Old DensityContainer found on disk!
         Will remove this file - 
         If you want to keep old densities, please start your calculation with a different basename. 

WARNING: The globally-selected AuxJ basis set is optimized for use with ECPs
         Make sure a suitable alternative is explicitly given all heavy elements (Z>36)

INFO   : the flag for use of the SHARK integral package has been found!

================================================================================
                                       INPUT FILE
================================================================================
NAME = orca.inp
|  1> ! TightSCF SlowConv DIIS
|  2> %maxcore 5000
|  3> %pal
|  4>   nprocs 8
|  5> end
|  6> %pointcharges "orca.bq"
|  7> %method
|  8>   Method DFT
|  9>   Functional PBE
| 10>   RI on
| 11>   RunTyp Energy
| 12> end
| 13> %basis
| 14>   Basis "def2-TZVPP"
| 15>   Aux "def2/J"
| 16> end
| 17> %scf
| 18>   HFTyp rks
| 19>   Guess Hueckel
| 20>   AutoStart True
| 21>   SCFMode Direct
| 22>   MaxIter 1000
| 23>   sthresh 1e-6
| 24>   AutoTRAHIter 100
| 25> end
| 26> %coords
| 27>   CTyp xyz
| 28>   Mult 1
| 29>   Units angs
| 30>   Charge 0
| 31>   coords
| 32> O:                      0.00000000000    0.00000000000    0.00000000000
| 33> Ti                      0.00000000000    1.48054676798   -1.27209143018
| 34> Ti                      0.00000000000   -1.48054676798   -1.27209143018
| 35> Ti                      0.00000000000    0.00000000000    1.98192821856
| 36> O                      -0.00000000000    0.00000000000   -2.54418286035
| 37> O                      -1.98192821856    1.48054676798   -1.27209143018
| 38> O                       1.98192821856    1.48054676798   -1.27209143018
| 39> O                       1.98192821856   -1.48054676798   -1.27209143018
| 40> O                      -1.98192821856   -1.48054676798   -1.27209143018
| 41> Ti>    4.00000000000   -3.25401964873    0.00000000000   -1.27209143018
| 42> NewECP
| 43> N_core 0
| 44>   lmax f
| 45>   s 2
| 46>    1      0.860000       9.191690  2
| 47>    2      0.172000       0.008301  2
| 48>   p 2
| 49>    1      0.860000      17.997720  2
| 50>    2      0.172000      -0.032600  2
| 51>   d 2
| 52>    1      1.600000      -9.504310  2
| 53>    2      0.320000      -0.151370  2
| 54>   f 1
| 55>    1      1.000000000    0.000000000 2
| 56> end
| 57> Ti>    4.00000000000    3.25401964873    0.00000000000   -1.27209143018
| 58> NewECP
| 59> N_core 0
| 60>   lmax f
| 61>   s 2
| 62>    1      0.860000       9.191690  2
| 63>    2      0.172000       0.008301  2
| 64>   p 2
| 65>    1      0.860000      17.997720  2
| 66>    2      0.172000      -0.032600  2
| 67>   d 2
| 68>    1      1.600000      -9.504310  2
| 69>    2      0.320000      -0.151370  2
| 70>   f 1
| 71>    1      1.000000000    0.000000000 2
| 72> end
| 73> Ti>    4.00000000000    0.00000000000    2.96109353596    1.98192821856
| 74> NewECP
| 75> N_core 0
| 76>   lmax f
| 77>   s 2
| 78>    1      0.860000       9.191690  2
| 79>    2      0.172000       0.008301  2
| 80>   p 2
| 81>    1      0.860000      17.997720  2
| 82>    2      0.172000      -0.032600  2
| 83>   d 2
| 84>    1      1.600000      -9.504310  2
| 85>    2      0.320000      -0.151370  2
| 86>   f 1
| 87>    1      1.000000000    0.000000000 2
| 88> end
| 89> Ti>    4.00000000000    0.00000000000   -2.96109353596    1.98192821856
| 90> NewECP
| 91> N_core 0
| 92>   lmax f
| 93>   s 2
| 94>    1      0.860000       9.191690  2
| 95>    2      0.172000       0.008301  2
| 96>   p 2
| 97>    1      0.860000      17.997720  2
| 98>    2      0.172000      -0.032600  2
| 99>   d 2
|100>    1      1.600000      -9.504310  2
|101>    2      0.320000      -0.151370  2
|102>   f 1
|103>    1      1.000000000    0.000000000 2
|104> end
|105> Ti>    4.00000000000   -3.25401964873    1.48054676798    1.98192821856
|106> NewECP
|107> N_core 0
|108>   lmax f
|109>   s 2
|110>    1      0.860000       9.191690  2
|111>    2      0.172000       0.008301  2
|112>   p 2
|113>    1      0.860000      17.997720  2
|114>    2      0.172000      -0.032600  2
|115>   d 2
|116>    1      1.600000      -9.504310  2
|117>    2      0.320000      -0.151370  2
|118>   f 1
|119>    1      1.000000000    0.000000000 2
|120> end
|121> Ti>    4.00000000000    3.25401964873    1.48054676798    1.98192821856
|122> NewECP
|123> N_core 0
|124>   lmax f
|125>   s 2
|126>    1      0.860000       9.191690  2
|127>    2      0.172000       0.008301  2
|128>   p 2
|129>    1      0.860000      17.997720  2
|130>    2      0.172000      -0.032600  2
|131>   d 2
|132>    1      1.600000      -9.504310  2
|133>    2      0.320000      -0.151370  2
|134>   f 1
|135>    1      1.000000000    0.000000000 2
|136> end
|137> Ti>    4.00000000000    3.25401964873   -1.48054676798    1.98192821856
|138> NewECP
|139> N_core 0
|140>   lmax f
|141>   s 2
|142>    1      0.860000       9.191690  2
|143>    2      0.172000       0.008301  2
|144>   p 2
|145>    1      0.860000      17.997720  2
|146>    2      0.172000      -0.032600  2
|147>   d 2
|148>    1      1.600000      -9.504310  2
|149>    2      0.320000      -0.151370  2
|150>   f 1
|151>    1      1.000000000    0.000000000 2
|152> end
|153> Ti>    4.00000000000   -3.25401964873   -1.48054676798    1.98192821856
|154> NewECP
|155> N_core 0
|156>   lmax f
|157>   s 2
|158>    1      0.860000       9.191690  2
|159>    2      0.172000       0.008301  2
|160>   p 2
|161>    1      0.860000      17.997720  2
|162>    2      0.172000      -0.032600  2
|163>   d 2
|164>    1      1.600000      -9.504310  2
|165>    2      0.320000      -0.151370  2
|166>   f 1
|167>    1      1.000000000    0.000000000 2
|168> end
|169> Ti>    4.00000000000    0.00000000000    0.00000000000   -4.52611107891
|170> NewECP
|171> N_core 0
|172>   lmax f
|173>   s 2
|174>    1      0.860000       9.191690  2
|175>    2      0.172000       0.008301  2
|176>   p 2
|177>    1      0.860000      17.997720  2
|178>    2      0.172000      -0.032600  2
|179>   d 2
|180>    1      1.600000      -9.504310  2
|181>    2      0.320000      -0.151370  2
|182>   f 1
|183>    1      1.000000000    0.000000000 2
|184> end
|185> Ti>    4.00000000000   -3.25401964873    2.96109353596   -1.27209143018
|186> NewECP
|187> N_core 0
|188>   lmax f
|189>   s 2
|190>    1      0.860000       9.191690  2
|191>    2      0.172000       0.008301  2
|192>   p 2
|193>    1      0.860000      17.997720  2
|194>    2      0.172000      -0.032600  2
|195>   d 2
|196>    1      1.600000      -9.504310  2
|197>    2      0.320000      -0.151370  2
|198>   f 1
|199>    1      1.000000000    0.000000000 2
|200> end
|201> Ti>    4.00000000000    3.25401964873    2.96109353596   -1.27209143018
|202> NewECP
|203> N_core 0
|204>   lmax f
|205>   s 2
|206>    1      0.860000       9.191690  2
|207>    2      0.172000       0.008301  2
|208>   p 2
|209>    1      0.860000      17.997720  2
|210>    2      0.172000      -0.032600  2
|211>   d 2
|212>    1      1.600000      -9.504310  2
|213>    2      0.320000      -0.151370  2
|214>   f 1
|215>    1      1.000000000    0.000000000 2
|216> end
|217> Ti>    4.00000000000    3.25401964873   -2.96109353596   -1.27209143018
|218> NewECP
|219> N_core 0
|220>   lmax f
|221>   s 2
|222>    1      0.860000       9.191690  2
|223>    2      0.172000       0.008301  2
|224>   p 2
|225>    1      0.860000      17.997720  2
|226>    2      0.172000      -0.032600  2
|227>   d 2
|228>    1      1.600000      -9.504310  2
|229>    2      0.320000      -0.151370  2
|230>   f 1
|231>    1      1.000000000    0.000000000 2
|232> end
|233> Ti>    4.00000000000   -3.25401964873   -2.96109353596   -1.27209143018
|234> NewECP
|235> N_core 0
|236>   lmax f
|237>   s 2
|238>    1      0.860000       9.191690  2
|239>    2      0.172000       0.008301  2
|240>   p 2
|241>    1      0.860000      17.997720  2
|242>    2      0.172000      -0.032600  2
|243>   d 2
|244>    1      1.600000      -9.504310  2
|245>    2      0.320000      -0.151370  2
|246>   f 1
|247>    1      1.000000000    0.000000000 2
|248> end
|249> Ti>    4.00000000000    0.00000000000    4.44164030394   -1.27209143018
|250> NewECP
|251> N_core 0
|252>   lmax f
|253>   s 2
|254>    1      0.860000       9.191690  2
|255>    2      0.172000       0.008301  2
|256>   p 2
|257>    1      0.860000      17.997720  2
|258>    2      0.172000      -0.032600  2
|259>   d 2
|260>    1      1.600000      -9.504310  2
|261>    2      0.320000      -0.151370  2
|262>   f 1
|263>    1      1.000000000    0.000000000 2
|264> end
|265> Ti>    4.00000000000    0.00000000000   -4.44164030394   -1.27209143018
|266> NewECP
|267> N_core 0
|268>   lmax f
|269>   s 2
|270>    1      0.860000       9.191690  2
|271>    2      0.172000       0.008301  2
|272>   p 2
|273>    1      0.860000      17.997720  2
|274>    2      0.172000      -0.032600  2
|275>   d 2
|276>    1      1.600000      -9.504310  2
|277>    2      0.320000      -0.151370  2
|278>   f 1
|279>    1      1.000000000    0.000000000 2
|280> end
|281> Ti>    4.00000000000    0.00000000000    2.96109353596   -4.52611107891
|282> NewECP
|283> N_core 0
|284>   lmax f
|285>   s 2
|286>    1      0.860000       9.191690  2
|287>    2      0.172000       0.008301  2
|288>   p 2
|289>    1      0.860000      17.997720  2
|290>    2      0.172000      -0.032600  2
|291>   d 2
|292>    1      1.600000      -9.504310  2
|293>    2      0.320000      -0.151370  2
|294>   f 1
|295>    1      1.000000000    0.000000000 2
|296> end
|297> Ti>    4.00000000000    0.00000000000   -2.96109353596   -4.52611107891
|298> NewECP
|299> N_core 0
|300>   lmax f
|301>   s 2
|302>    1      0.860000       9.191690  2
|303>    2      0.172000       0.008301  2
|304>   p 2
|305>    1      0.860000      17.997720  2
|306>    2      0.172000      -0.032600  2
|307>   d 2
|308>    1      1.600000      -9.504310  2
|309>    2      0.320000      -0.151370  2
|310>   f 1
|311>    1      1.000000000    0.000000000 2
|312> end
|313> Ti>    4.00000000000    0.00000000000    1.48054676798    5.23594786729
|314> NewECP
|315> N_core 0
|316>   lmax f
|317>   s 2
|318>    1      0.860000       9.191690  2
|319>    2      0.172000       0.008301  2
|320>   p 2
|321>    1      0.860000      17.997720  2
|322>    2      0.172000      -0.032600  2
|323>   d 2
|324>    1      1.600000      -9.504310  2
|325>    2      0.320000      -0.151370  2
|326>   f 1
|327>    1      1.000000000    0.000000000 2
|328> end
|329> Ti>    4.00000000000    0.00000000000   -1.48054676798    5.23594786729
|330> NewECP
|331> N_core 0
|332>   lmax f
|333>   s 2
|334>    1      0.860000       9.191690  2
|335>    2      0.172000       0.008301  2
|336>   p 2
|337>    1      0.860000      17.997720  2
|338>    2      0.172000      -0.032600  2
|339>   d 2
|340>    1      1.600000      -9.504310  2
|341>    2      0.320000      -0.151370  2
|342>   f 1
|343>    1      1.000000000    0.000000000 2
|344> end
|345> Ti>    4.00000000000   -3.25401964873    1.48054676798   -4.52611107891
|346> NewECP
|347> N_core 0
|348>   lmax f
|349>   s 2
|350>    1      0.860000       9.191690  2
|351>    2      0.172000       0.008301  2
|352>   p 2
|353>    1      0.860000      17.997720  2
|354>    2      0.172000      -0.032600  2
|355>   d 2
|356>    1      1.600000      -9.504310  2
|357>    2      0.320000      -0.151370  2
|358>   f 1
|359>    1      1.000000000    0.000000000 2
|360> end
|361> Ti>    4.00000000000    3.25401964873    1.48054676798   -4.52611107891
|362> NewECP
|363> N_core 0
|364>   lmax f
|365>   s 2
|366>    1      0.860000       9.191690  2
|367>    2      0.172000       0.008301  2
|368>   p 2
|369>    1      0.860000      17.997720  2
|370>    2      0.172000      -0.032600  2
|371>   d 2
|372>    1      1.600000      -9.504310  2
|373>    2      0.320000      -0.151370  2
|374>   f 1
|375>    1      1.000000000    0.000000000 2
|376> end
|377> Ti>    4.00000000000    3.25401964873   -1.48054676798   -4.52611107891
|378> NewECP
|379> N_core 0
|380>   lmax f
|381>   s 2
|382>    1      0.860000       9.191690  2
|383>    2      0.172000       0.008301  2
|384>   p 2
|385>    1      0.860000      17.997720  2
|386>    2      0.172000      -0.032600  2
|387>   d 2
|388>    1      1.600000      -9.504310  2
|389>    2      0.320000      -0.151370  2
|390>   f 1
|391>    1      1.000000000    0.000000000 2
|392> end
|393> Ti>    4.00000000000   -3.25401964873   -1.48054676798   -4.52611107891
|394> NewECP
|395> N_core 0
|396>   lmax f
|397>   s 2
|398>    1      0.860000       9.191690  2
|399>    2      0.172000       0.008301  2
|400>   p 2
|401>    1      0.860000      17.997720  2
|402>    2      0.172000      -0.032600  2
|403>   d 2
|404>    1      1.600000      -9.504310  2
|405>    2      0.320000      -0.151370  2
|406>   f 1
|407>    1      1.000000000    0.000000000 2
|408> end
|409> Ti>    4.00000000000   -3.25401964873    4.44164030394    1.98192821856
|410> NewECP
|411> N_core 0
|412>   lmax f
|413>   s 2
|414>    1      0.860000       9.191690  2
|415>    2      0.172000       0.008301  2
|416>   p 2
|417>    1      0.860000      17.997720  2
|418>    2      0.172000      -0.032600  2
|419>   d 2
|420>    1      1.600000      -9.504310  2
|421>    2      0.320000      -0.151370  2
|422>   f 1
|423>    1      1.000000000    0.000000000 2
|424> end
|425> Ti>    4.00000000000    3.25401964873    4.44164030394    1.98192821856
|426> NewECP
|427> N_core 0
|428>   lmax f
|429>   s 2
|430>    1      0.860000       9.191690  2
|431>    2      0.172000       0.008301  2
|432>   p 2
|433>    1      0.860000      17.997720  2
|434>    2      0.172000      -0.032600  2
|435>   d 2
|436>    1      1.600000      -9.504310  2
|437>    2      0.320000      -0.151370  2
|438>   f 1
|439>    1      1.000000000    0.000000000 2
|440> end
|441> Ti>    4.00000000000    3.25401964873   -4.44164030394    1.98192821856
|442> NewECP
|443> N_core 0
|444>   lmax f
|445>   s 2
|446>    1      0.860000       9.191690  2
|447>    2      0.172000       0.008301  2
|448>   p 2
|449>    1      0.860000      17.997720  2
|450>    2      0.172000      -0.032600  2
|451>   d 2
|452>    1      1.600000      -9.504310  2
|453>    2      0.320000      -0.151370  2
|454>   f 1
|455>    1      1.000000000    0.000000000 2
|456> end
|457> Ti>    4.00000000000   -3.25401964873   -4.44164030394    1.98192821856
|458> NewECP
|459> N_core 0
|460>   lmax f
|461>   s 2
|462>    1      0.860000       9.191690  2
|463>    2      0.172000       0.008301  2
|464>   p 2
|465>    1      0.860000      17.997720  2
|466>    2      0.172000      -0.032600  2
|467>   d 2
|468>    1      1.600000      -9.504310  2
|469>    2      0.320000      -0.151370  2
|470>   f 1
|471>    1      1.000000000    0.000000000 2
|472> end
|473> Ti>    4.00000000000   -3.25401964873    0.00000000000    5.23594786729
|474> NewECP
|475> N_core 0
|476>   lmax f
|477>   s 2
|478>    1      0.860000       9.191690  2
|479>    2      0.172000       0.008301  2
|480>   p 2
|481>    1      0.860000      17.997720  2
|482>    2      0.172000      -0.032600  2
|483>   d 2
|484>    1      1.600000      -9.504310  2
|485>    2      0.320000      -0.151370  2
|486>   f 1
|487>    1      1.000000000    0.000000000 2
|488> end
|489> Ti>    4.00000000000    3.25401964873    0.00000000000    5.23594786729
|490> NewECP
|491> N_core 0
|492>   lmax f
|493>   s 2
|494>    1      0.860000       9.191690  2
|495>    2      0.172000       0.008301  2
|496>   p 2
|497>    1      0.860000      17.997720  2
|498>    2      0.172000      -0.032600  2
|499>   d 2
|500>    1      1.600000      -9.504310  2
|501>    2      0.320000      -0.151370  2
|502>   f 1
|503>    1      1.000000000    0.000000000 2
|504> end
|505> Ti>    4.00000000000    0.00000000000    5.92218707193    1.98192821856
|506> NewECP
|507> N_core 0
|508>   lmax f
|509>   s 2
|510>    1      0.860000       9.191690  2
|511>    2      0.172000       0.008301  2
|512>   p 2
|513>    1      0.860000      17.997720  2
|514>    2      0.172000      -0.032600  2
|515>   d 2
|516>    1      1.600000      -9.504310  2
|517>    2      0.320000      -0.151370  2
|518>   f 1
|519>    1      1.000000000    0.000000000 2
|520> end
|521> Ti>    4.00000000000    0.00000000000   -5.92218707193    1.98192821856
|522> NewECP
|523> N_core 0
|524>   lmax f
|525>   s 2
|526>    1      0.860000       9.191690  2
|527>    2      0.172000       0.008301  2
|528>   p 2
|529>    1      0.860000      17.997720  2
|530>    2      0.172000      -0.032600  2
|531>   d 2
|532>    1      1.600000      -9.504310  2
|533>    2      0.320000      -0.151370  2
|534>   f 1
|535>    1      1.000000000    0.000000000 2
|536> end
|537> Ti>    4.00000000000   -6.50803929747    1.48054676798   -1.27209143018
|538> NewECP
|539> N_core 0
|540>   lmax f
|541>   s 2
|542>    1      0.860000       9.191690  2
|543>    2      0.172000       0.008301  2
|544>   p 2
|545>    1      0.860000      17.997720  2
|546>    2      0.172000      -0.032600  2
|547>   d 2
|548>    1      1.600000      -9.504310  2
|549>    2      0.320000      -0.151370  2
|550>   f 1
|551>    1      1.000000000    0.000000000 2
|552> end
|553> Ti>    4.00000000000    6.50803929747    1.48054676798   -1.27209143018
|554> NewECP
|555> N_core 0
|556>   lmax f
|557>   s 2
|558>    1      0.860000       9.191690  2
|559>    2      0.172000       0.008301  2
|560>   p 2
|561>    1      0.860000      17.997720  2
|562>    2      0.172000      -0.032600  2
|563>   d 2
|564>    1      1.600000      -9.504310  2
|565>    2      0.320000      -0.151370  2
|566>   f 1
|567>    1      1.000000000    0.000000000 2
|568> end
|569> Ti>    4.00000000000    6.50803929747   -1.48054676798   -1.27209143018
|570> NewECP
|571> N_core 0
|572>   lmax f
|573>   s 2
|574>    1      0.860000       9.191690  2
|575>    2      0.172000       0.008301  2
|576>   p 2
|577>    1      0.860000      17.997720  2
|578>    2      0.172000      -0.032600  2
|579>   d 2
|580>    1      1.600000      -9.504310  2
|581>    2      0.320000      -0.151370  2
|582>   f 1
|583>    1      1.000000000    0.000000000 2
|584> end
|585> Ti>    4.00000000000   -6.50803929747   -1.48054676798   -1.27209143018
|586> NewECP
|587> N_core 0
|588>   lmax f
|589>   s 2
|590>    1      0.860000       9.191690  2
|591>    2      0.172000       0.008301  2
|592>   p 2
|593>    1      0.860000      17.997720  2
|594>    2      0.172000      -0.032600  2
|595>   d 2
|596>    1      1.600000      -9.504310  2
|597>    2      0.320000      -0.151370  2
|598>   f 1
|599>    1      1.000000000    0.000000000 2
|600> end
|601> Ti>    4.00000000000   -6.50803929747    0.00000000000    1.98192821856
|602> NewECP
|603> N_core 0
|604>   lmax f
|605>   s 2
|606>    1      0.860000       9.191690  2
|607>    2      0.172000       0.008301  2
|608>   p 2
|609>    1      0.860000      17.997720  2
|610>    2      0.172000      -0.032600  2
|611>   d 2
|612>    1      1.600000      -9.504310  2
|613>    2      0.320000      -0.151370  2
|614>   f 1
|615>    1      1.000000000    0.000000000 2
|616> end
|617> Ti>    4.00000000000    6.50803929747    0.00000000000    1.98192821856
|618> NewECP
|619> N_core 0
|620>   lmax f
|621>   s 2
|622>    1      0.860000       9.191690  2
|623>    2      0.172000       0.008301  2
|624>   p 2
|625>    1      0.860000      17.997720  2
|626>    2      0.172000      -0.032600  2
|627>   d 2
|628>    1      1.600000      -9.504310  2
|629>    2      0.320000      -0.151370  2
|630>   f 1
|631>    1      1.000000000    0.000000000 2
|632> end
|633> Ti>    4.00000000000   -3.25401964873    2.96109353596    5.23594786729
|634> NewECP
|635> N_core 0
|636>   lmax f
|637>   s 2
|638>    1      0.860000       9.191690  2
|639>    2      0.172000       0.008301  2
|640>   p 2
|641>    1      0.860000      17.997720  2
|642>    2      0.172000      -0.032600  2
|643>   d 2
|644>    1      1.600000      -9.504310  2
|645>    2      0.320000      -0.151370  2
|646>   f 1
|647>    1      1.000000000    0.000000000 2
|648> end
|649> Ti>    4.00000000000    3.25401964873    2.96109353596    5.23594786729
|650> NewECP
|651> N_core 0
|652>   lmax f
|653>   s 2
|654>    1      0.860000       9.191690  2
|655>    2      0.172000       0.008301  2
|656>   p 2
|657>    1      0.860000      17.997720  2
|658>    2      0.172000      -0.032600  2
|659>   d 2
|660>    1      1.600000      -9.504310  2
|661>    2      0.320000      -0.151370  2
|662>   f 1
|663>    1      1.000000000    0.000000000 2
|664> end
|665> Ti>    4.00000000000    3.25401964873   -2.96109353596    5.23594786729
|666> NewECP
|667> N_core 0
|668>   lmax f
|669>   s 2
|670>    1      0.860000       9.191690  2
|671>    2      0.172000       0.008301  2
|672>   p 2
|673>    1      0.860000      17.997720  2
|674>    2      0.172000      -0.032600  2
|675>   d 2
|676>    1      1.600000      -9.504310  2
|677>    2      0.320000      -0.151370  2
|678>   f 1
|679>    1      1.000000000    0.000000000 2
|680> end
|681> Ti>    4.00000000000   -3.25401964873   -2.96109353596    5.23594786729
|682> NewECP
|683> N_core 0
|684>   lmax f
|685>   s 2
|686>    1      0.860000       9.191690  2
|687>    2      0.172000       0.008301  2
|688>   p 2
|689>    1      0.860000      17.997720  2
|690>    2      0.172000      -0.032600  2
|691>   d 2
|692>    1      1.600000      -9.504310  2
|693>    2      0.320000      -0.151370  2
|694>   f 1
|695>    1      1.000000000    0.000000000 2
|696> end
|697> Ti>    4.00000000000    0.00000000000    4.44164030394    5.23594786729
|698> NewECP
|699> N_core 0
|700>   lmax f
|701>   s 2
|702>    1      0.860000       9.191690  2
|703>    2      0.172000       0.008301  2
|704>   p 2
|705>    1      0.860000      17.997720  2
|706>    2      0.172000      -0.032600  2
|707>   d 2
|708>    1      1.600000      -9.504310  2
|709>    2      0.320000      -0.151370  2
|710>   f 1
|711>    1      1.000000000    0.000000000 2
|712> end
|713> Ti>    4.00000000000    0.00000000000   -4.44164030394    5.23594786729
|714> NewECP
|715> N_core 0
|716>   lmax f
|717>   s 2
|718>    1      0.860000       9.191690  2
|719>    2      0.172000       0.008301  2
|720>   p 2
|721>    1      0.860000      17.997720  2
|722>    2      0.172000      -0.032600  2
|723>   d 2
|724>    1      1.600000      -9.504310  2
|725>    2      0.320000      -0.151370  2
|726>   f 1
|727>    1      1.000000000    0.000000000 2
|728> end
|729> Ti>    4.00000000000   -3.25401964873    5.92218707193   -1.27209143018
|730> NewECP
|731> N_core 0
|732>   lmax f
|733>   s 2
|734>    1      0.860000       9.191690  2
|735>    2      0.172000       0.008301  2
|736>   p 2
|737>    1      0.860000      17.997720  2
|738>    2      0.172000      -0.032600  2
|739>   d 2
|740>    1      1.600000      -9.504310  2
|741>    2      0.320000      -0.151370  2
|742>   f 1
|743>    1      1.000000000    0.000000000 2
|744> end
|745> Ti>    4.00000000000    3.25401964873    5.92218707193   -1.27209143018
|746> NewECP
|747> N_core 0
|748>   lmax f
|749>   s 2
|750>    1      0.860000       9.191690  2
|751>    2      0.172000       0.008301  2
|752>   p 2
|753>    1      0.860000      17.997720  2
|754>    2      0.172000      -0.032600  2
|755>   d 2
|756>    1      1.600000      -9.504310  2
|757>    2      0.320000      -0.151370  2
|758>   f 1
|759>    1      1.000000000    0.000000000 2
|760> end
|761> Ti>    4.00000000000    3.25401964873   -5.92218707193   -1.27209143018
|762> NewECP
|763> N_core 0
|764>   lmax f
|765>   s 2
|766>    1      0.860000       9.191690  2
|767>    2      0.172000       0.008301  2
|768>   p 2
|769>    1      0.860000      17.997720  2
|770>    2      0.172000      -0.032600  2
|771>   d 2
|772>    1      1.600000      -9.504310  2
|773>    2      0.320000      -0.151370  2
|774>   f 1
|775>    1      1.000000000    0.000000000 2
|776> end
|777> Ti>    4.00000000000   -3.25401964873   -5.92218707193   -1.27209143018
|778> NewECP
|779> N_core 0
|780>   lmax f
|781>   s 2
|782>    1      0.860000       9.191690  2
|783>    2      0.172000       0.008301  2
|784>   p 2
|785>    1      0.860000      17.997720  2
|786>    2      0.172000      -0.032600  2
|787>   d 2
|788>    1      1.600000      -9.504310  2
|789>    2      0.320000      -0.151370  2
|790>   f 1
|791>    1      1.000000000    0.000000000 2
|792> end
|793> Ti>    4.00000000000   -3.25401964873    4.44164030394   -4.52611107891
|794> NewECP
|795> N_core 0
|796>   lmax f
|797>   s 2
|798>    1      0.860000       9.191690  2
|799>    2      0.172000       0.008301  2
|800>   p 2
|801>    1      0.860000      17.997720  2
|802>    2      0.172000      -0.032600  2
|803>   d 2
|804>    1      1.600000      -9.504310  2
|805>    2      0.320000      -0.151370  2
|806>   f 1
|807>    1      1.000000000    0.000000000 2
|808> end
|809> Ti>    4.00000000000    3.25401964873    4.44164030394   -4.52611107891
|810> NewECP
|811> N_core 0
|812>   lmax f
|813>   s 2
|814>    1      0.860000       9.191690  2
|815>    2      0.172000       0.008301  2
|816>   p 2
|817>    1      0.860000      17.997720  2
|818>    2      0.172000      -0.032600  2
|819>   d 2
|820>    1      1.600000      -9.504310  2
|821>    2      0.320000      -0.151370  2
|822>   f 1
|823>    1      1.000000000    0.000000000 2
|824> end
|825> Ti>    4.00000000000    3.25401964873   -4.44164030394   -4.52611107891
|826> NewECP
|827> N_core 0
|828>   lmax f
|829>   s 2
|830>    1      0.860000       9.191690  2
|831>    2      0.172000       0.008301  2
|832>   p 2
|833>    1      0.860000      17.997720  2
|834>    2      0.172000      -0.032600  2
|835>   d 2
|836>    1      1.600000      -9.504310  2
|837>    2      0.320000      -0.151370  2
|838>   f 1
|839>    1      1.000000000    0.000000000 2
|840> end
|841> Ti>    4.00000000000   -3.25401964873   -4.44164030394   -4.52611107891
|842> NewECP
|843> N_core 0
|844>   lmax f
|845>   s 2
|846>    1      0.860000       9.191690  2
|847>    2      0.172000       0.008301  2
|848>   p 2
|849>    1      0.860000      17.997720  2
|850>    2      0.172000      -0.032600  2
|851>   d 2
|852>    1      1.600000      -9.504310  2
|853>    2      0.320000      -0.151370  2
|854>   f 1
|855>    1      1.000000000    0.000000000 2
|856> end
|857> Ti>    4.00000000000   -6.50803929747    2.96109353596    1.98192821856
|858> NewECP
|859> N_core 0
|860>   lmax f
|861>   s 2
|862>    1      0.860000       9.191690  2
|863>    2      0.172000       0.008301  2
|864>   p 2
|865>    1      0.860000      17.997720  2
|866>    2      0.172000      -0.032600  2
|867>   d 2
|868>    1      1.600000      -9.504310  2
|869>    2      0.320000      -0.151370  2
|870>   f 1
|871>    1      1.000000000    0.000000000 2
|872> end
|873> Ti>    4.00000000000    6.50803929747    2.96109353596    1.98192821856
|874> NewECP
|875> N_core 0
|876>   lmax f
|877>   s 2
|878>    1      0.860000       9.191690  2
|879>    2      0.172000       0.008301  2
|880>   p 2
|881>    1      0.860000      17.997720  2
|882>    2      0.172000      -0.032600  2
|883>   d 2
|884>    1      1.600000      -9.504310  2
|885>    2      0.320000      -0.151370  2
|886>   f 1
|887>    1      1.000000000    0.000000000 2
|888> end
|889> Ti>    4.00000000000    6.50803929747   -2.96109353596    1.98192821856
|890> NewECP
|891> N_core 0
|892>   lmax f
|893>   s 2
|894>    1      0.860000       9.191690  2
|895>    2      0.172000       0.008301  2
|896>   p 2
|897>    1      0.860000      17.997720  2
|898>    2      0.172000      -0.032600  2
|899>   d 2
|900>    1      1.600000      -9.504310  2
|901>    2      0.320000      -0.151370  2
|902>   f 1
|903>    1      1.000000000    0.000000000 2
|904> end
|905> Ti>    4.00000000000   -6.50803929747   -2.96109353596    1.98192821856
|906> NewECP
|907> N_core 0
|908>   lmax f
|909>   s 2
|910>    1      0.860000       9.191690  2
|911>    2      0.172000       0.008301  2
|912>   p 2
|913>    1      0.860000      17.997720  2
|914>    2      0.172000      -0.032600  2
|915>   d 2
|916>    1      1.600000      -9.504310  2
|917>    2      0.320000      -0.151370  2
|918>   f 1
|919>    1      1.000000000    0.000000000 2
|920> end
|921> Ti>    4.00000000000    0.00000000000    5.92218707193   -4.52611107891
|922> NewECP
|923> N_core 0
|924>   lmax f
|925>   s 2
|926>    1      0.860000       9.191690  2
|927>    2      0.172000       0.008301  2
|928>   p 2
|929>    1      0.860000      17.997720  2
|930>    2      0.172000      -0.032600  2
|931>   d 2
|932>    1      1.600000      -9.504310  2
|933>    2      0.320000      -0.151370  2
|934>   f 1
|935>    1      1.000000000    0.000000000 2
|936> end
|937> Ti>    4.00000000000    0.00000000000   -5.92218707193   -4.52611107891
|938> NewECP
|939> N_core 0
|940>   lmax f
|941>   s 2
|942>    1      0.860000       9.191690  2
|943>    2      0.172000       0.008301  2
|944>   p 2
|945>    1      0.860000      17.997720  2
|946>    2      0.172000      -0.032600  2
|947>   d 2
|948>    1      1.600000      -9.504310  2
|949>    2      0.320000      -0.151370  2
|950>   f 1
|951>    1      1.000000000    0.000000000 2
|952> end
|953> Ti>    4.00000000000    0.00000000000    7.40273383991   -1.27209143018
|954> NewECP
|955> N_core 0
|956>   lmax f
|957>   s 2
|958>    1      0.860000       9.191690  2
|959>    2      0.172000       0.008301  2
|960>   p 2
|961>    1      0.860000      17.997720  2
|962>    2      0.172000      -0.032600  2
|963>   d 2
|964>    1      1.600000      -9.504310  2
|965>    2      0.320000      -0.151370  2
|966>   f 1
|967>    1      1.000000000    0.000000000 2
|968> end
|969> Ti>    4.00000000000    0.00000000000   -7.40273383991   -1.27209143018
|970> NewECP
|971> N_core 0
|972>   lmax f
|973>   s 2
|974>    1      0.860000       9.191690  2
|975>    2      0.172000       0.008301  2
|976>   p 2
|977>    1      0.860000      17.997720  2
|978>    2      0.172000      -0.032600  2
|979>   d 2
|980>    1      1.600000      -9.504310  2
|981>    2      0.320000      -0.151370  2
|982>   f 1
|983>    1      1.000000000    0.000000000 2
|984> end
|985> Ti>    4.00000000000    0.00000000000    1.48054676798   -7.78013072764
|986> NewECP
|987> N_core 0
|988>   lmax f
|989>   s 2
|990>    1      0.860000       9.191690  2
|991>    2      0.172000       0.008301  2
|992>   p 2
|993>    1      0.860000      17.997720  2
|994>    2      0.172000      -0.032600  2
|995>   d 2
|996>    1      1.600000      -9.504310  2
|997>    2      0.320000      -0.151370  2
|998>   f 1
|999>    1      1.000000000    0.000000000 2
|1000> end
|1001> Ti>    4.00000000000    0.00000000000   -1.48054676798   -7.78013072764
|1002> NewECP
|1003> N_core 0
|1004>   lmax f
|1005>   s 2
|1006>    1      0.860000       9.191690  2
|1007>    2      0.172000       0.008301  2
|1008>   p 2
|1009>    1      0.860000      17.997720  2
|1010>    2      0.172000      -0.032600  2
|1011>   d 2
|1012>    1      1.600000      -9.504310  2
|1013>    2      0.320000      -0.151370  2
|1014>   f 1
|1015>    1      1.000000000    0.000000000 2
|1016> end
|1017> Ti>    4.00000000000   -6.50803929747    0.00000000000   -4.52611107891
|1018> NewECP
|1019> N_core 0
|1020>   lmax f
|1021>   s 2
|1022>    1      0.860000       9.191690  2
|1023>    2      0.172000       0.008301  2
|1024>   p 2
|1025>    1      0.860000      17.997720  2
|1026>    2      0.172000      -0.032600  2
|1027>   d 2
|1028>    1      1.600000      -9.504310  2
|1029>    2      0.320000      -0.151370  2
|1030>   f 1
|1031>    1      1.000000000    0.000000000 2
|1032> end
|1033> Ti>    4.00000000000    6.50803929747    0.00000000000   -4.52611107891
|1034> NewECP
|1035> N_core 0
|1036>   lmax f
|1037>   s 2
|1038>    1      0.860000       9.191690  2
|1039>    2      0.172000       0.008301  2
|1040>   p 2
|1041>    1      0.860000      17.997720  2
|1042>    2      0.172000      -0.032600  2
|1043>   d 2
|1044>    1      1.600000      -9.504310  2
|1045>    2      0.320000      -0.151370  2
|1046>   f 1
|1047>    1      1.000000000    0.000000000 2
|1048> end
|1049> Ti>    4.00000000000   -6.50803929747    4.44164030394   -1.27209143018
|1050> NewECP
|1051> N_core 0
|1052>   lmax f
|1053>   s 2
|1054>    1      0.860000       9.191690  2
|1055>    2      0.172000       0.008301  2
|1056>   p 2
|1057>    1      0.860000      17.997720  2
|1058>    2      0.172000      -0.032600  2
|1059>   d 2
|1060>    1      1.600000      -9.504310  2
|1061>    2      0.320000      -0.151370  2
|1062>   f 1
|1063>    1      1.000000000    0.000000000 2
|1064> end
|1065> Ti>    4.00000000000    6.50803929747    4.44164030394   -1.27209143018
|1066> NewECP
|1067> N_core 0
|1068>   lmax f
|1069>   s 2
|1070>    1      0.860000       9.191690  2
|1071>    2      0.172000       0.008301  2
|1072>   p 2
|1073>    1      0.860000      17.997720  2
|1074>    2      0.172000      -0.032600  2
|1075>   d 2
|1076>    1      1.600000      -9.504310  2
|1077>    2      0.320000      -0.151370  2
|1078>   f 1
|1079>    1      1.000000000    0.000000000 2
|1080> end
|1081> Ti>    4.00000000000    6.50803929747   -4.44164030394   -1.27209143018
|1082> NewECP
|1083> N_core 0
|1084>   lmax f
|1085>   s 2
|1086>    1      0.860000       9.191690  2
|1087>    2      0.172000       0.008301  2
|1088>   p 2
|1089>    1      0.860000      17.997720  2
|1090>    2      0.172000      -0.032600  2
|1091>   d 2
|1092>    1      1.600000      -9.504310  2
|1093>    2      0.320000      -0.151370  2
|1094>   f 1
|1095>    1      1.000000000    0.000000000 2
|1096> end
|1097> Ti>    4.00000000000   -6.50803929747   -4.44164030394   -1.27209143018
|1098> NewECP
|1099> N_core 0
|1100>   lmax f
|1101>   s 2
|1102>    1      0.860000       9.191690  2
|1103>    2      0.172000       0.008301  2
|1104>   p 2
|1105>    1      0.860000      17.997720  2
|1106>    2      0.172000      -0.032600  2
|1107>   d 2
|1108>    1      1.600000      -9.504310  2
|1109>    2      0.320000      -0.151370  2
|1110>   f 1
|1111>    1      1.000000000    0.000000000 2
|1112> end
|1113> Ti>    4.00000000000   -3.25401964873    7.40273383991    1.98192821856
|1114> NewECP
|1115> N_core 0
|1116>   lmax f
|1117>   s 2
|1118>    1      0.860000       9.191690  2
|1119>    2      0.172000       0.008301  2
|1120>   p 2
|1121>    1      0.860000      17.997720  2
|1122>    2      0.172000      -0.032600  2
|1123>   d 2
|1124>    1      1.600000      -9.504310  2
|1125>    2      0.320000      -0.151370  2
|1126>   f 1
|1127>    1      1.000000000    0.000000000 2
|1128> end
|1129> Ti>    4.00000000000    3.25401964873    7.40273383991    1.98192821856
|1130> NewECP
|1131> N_core 0
|1132>   lmax f
|1133>   s 2
|1134>    1      0.860000       9.191690  2
|1135>    2      0.172000       0.008301  2
|1136>   p 2
|1137>    1      0.860000      17.997720  2
|1138>    2      0.172000      -0.032600  2
|1139>   d 2
|1140>    1      1.600000      -9.504310  2
|1141>    2      0.320000      -0.151370  2
|1142>   f 1
|1143>    1      1.000000000    0.000000000 2
|1144> end
|1145> Ti>    4.00000000000    3.25401964873   -7.40273383991    1.98192821856
|1146> NewECP
|1147> N_core 0
|1148>   lmax f
|1149>   s 2
|1150>    1      0.860000       9.191690  2
|1151>    2      0.172000       0.008301  2
|1152>   p 2
|1153>    1      0.860000      17.997720  2
|1154>    2      0.172000      -0.032600  2
|1155>   d 2
|1156>    1      1.600000      -9.504310  2
|1157>    2      0.320000      -0.151370  2
|1158>   f 1
|1159>    1      1.000000000    0.000000000 2
|1160> end
|1161> Ti>    4.00000000000   -3.25401964873   -7.40273383991    1.98192821856
|1162> NewECP
|1163> N_core 0
|1164>   lmax f
|1165>   s 2
|1166>    1      0.860000       9.191690  2
|1167>    2      0.172000       0.008301  2
|1168>   p 2
|1169>    1      0.860000      17.997720  2
|1170>    2      0.172000      -0.032600  2
|1171>   d 2
|1172>    1      1.600000      -9.504310  2
|1173>    2      0.320000      -0.151370  2
|1174>   f 1
|1175>    1      1.000000000    0.000000000 2
|1176> end
|1177> Ti>    4.00000000000   -3.25401964873    0.00000000000   -7.78013072764
|1178> NewECP
|1179> N_core 0
|1180>   lmax f
|1181>   s 2
|1182>    1      0.860000       9.191690  2
|1183>    2      0.172000       0.008301  2
|1184>   p 2
|1185>    1      0.860000      17.997720  2
|1186>    2      0.172000      -0.032600  2
|1187>   d 2
|1188>    1      1.600000      -9.504310  2
|1189>    2      0.320000      -0.151370  2
|1190>   f 1
|1191>    1      1.000000000    0.000000000 2
|1192> end
|1193> Ti>    4.00000000000    3.25401964873    0.00000000000   -7.78013072764
|1194> NewECP
|1195> N_core 0
|1196>   lmax f
|1197>   s 2
|1198>    1      0.860000       9.191690  2
|1199>    2      0.172000       0.008301  2
|1200>   p 2
|1201>    1      0.860000      17.997720  2
|1202>    2      0.172000      -0.032600  2
|1203>   d 2
|1204>    1      1.600000      -9.504310  2
|1205>    2      0.320000      -0.151370  2
|1206>   f 1
|1207>    1      1.000000000    0.000000000 2
|1208> end
|1209> Ti>    4.00000000000   -6.50803929747    2.96109353596   -4.52611107891
|1210> NewECP
|1211> N_core 0
|1212>   lmax f
|1213>   s 2
|1214>    1      0.860000       9.191690  2
|1215>    2      0.172000       0.008301  2
|1216>   p 2
|1217>    1      0.860000      17.997720  2
|1218>    2      0.172000      -0.032600  2
|1219>   d 2
|1220>    1      1.600000      -9.504310  2
|1221>    2      0.320000      -0.151370  2
|1222>   f 1
|1223>    1      1.000000000    0.000000000 2
|1224> end
|1225> Ti>    4.00000000000    6.50803929747    2.96109353596   -4.52611107891
|1226> NewECP
|1227> N_core 0
|1228>   lmax f
|1229>   s 2
|1230>    1      0.860000       9.191690  2
|1231>    2      0.172000       0.008301  2
|1232>   p 2
|1233>    1      0.860000      17.997720  2
|1234>    2      0.172000      -0.032600  2
|1235>   d 2
|1236>    1      1.600000      -9.504310  2
|1237>    2      0.320000      -0.151370  2
|1238>   f 1
|1239>    1      1.000000000    0.000000000 2
|1240> end
|1241> Ti>    4.00000000000    6.50803929747   -2.96109353596   -4.52611107891
|1242> NewECP
|1243> N_core 0
|1244>   lmax f
|1245>   s 2
|1246>    1      0.860000       9.191690  2
|1247>    2      0.172000       0.008301  2
|1248>   p 2
|1249>    1      0.860000      17.997720  2
|1250>    2      0.172000      -0.032600  2
|1251>   d 2
|1252>    1      1.600000      -9.504310  2
|1253>    2      0.320000      -0.151370  2
|1254>   f 1
|1255>    1      1.000000000    0.000000000 2
|1256> end
|1257> Ti>    4.00000000000   -6.50803929747   -2.96109353596   -4.52611107891
|1258> NewECP
|1259> N_core 0
|1260>   lmax f
|1261>   s 2
|1262>    1      0.860000       9.191690  2
|1263>    2      0.172000       0.008301  2
|1264>   p 2
|1265>    1      0.860000      17.997720  2
|1266>    2      0.172000      -0.032600  2
|1267>   d 2
|1268>    1      1.600000      -9.504310  2
|1269>    2      0.320000      -0.151370  2
|1270>   f 1
|1271>    1      1.000000000    0.000000000 2
|1272> end
|1273> Ti>    4.00000000000    0.00000000000    0.00000000000    8.48996751602
|1274> NewECP
|1275> N_core 0
|1276>   lmax f
|1277>   s 2
|1278>    1      0.860000       9.191690  2
|1279>    2      0.172000       0.008301  2
|1280>   p 2
|1281>    1      0.860000      17.997720  2
|1282>    2      0.172000      -0.032600  2
|1283>   d 2
|1284>    1      1.600000      -9.504310  2
|1285>    2      0.320000      -0.151370  2
|1286>   f 1
|1287>    1      1.000000000    0.000000000 2
|1288> end
|1289> Ti>    4.00000000000   -3.25401964873    2.96109353596   -7.78013072764
|1290> NewECP
|1291> N_core 0
|1292>   lmax f
|1293>   s 2
|1294>    1      0.860000       9.191690  2
|1295>    2      0.172000       0.008301  2
|1296>   p 2
|1297>    1      0.860000      17.997720  2
|1298>    2      0.172000      -0.032600  2
|1299>   d 2
|1300>    1      1.600000      -9.504310  2
|1301>    2      0.320000      -0.151370  2
|1302>   f 1
|1303>    1      1.000000000    0.000000000 2
|1304> end
|1305> Ti>    4.00000000000    3.25401964873    2.96109353596   -7.78013072764
|1306> NewECP
|1307> N_core 0
|1308>   lmax f
|1309>   s 2
|1310>    1      0.860000       9.191690  2
|1311>    2      0.172000       0.008301  2
|1312>   p 2
|1313>    1      0.860000      17.997720  2
|1314>    2      0.172000      -0.032600  2
|1315>   d 2
|1316>    1      1.600000      -9.504310  2
|1317>    2      0.320000      -0.151370  2
|1318>   f 1
|1319>    1      1.000000000    0.000000000 2
|1320> end
|1321> Ti>    4.00000000000    3.25401964873   -2.96109353596   -7.78013072764
|1322> NewECP
|1323> N_core 0
|1324>   lmax f
|1325>   s 2
|1326>    1      0.860000       9.191690  2
|1327>    2      0.172000       0.008301  2
|1328>   p 2
|1329>    1      0.860000      17.997720  2
|1330>    2      0.172000      -0.032600  2
|1331>   d 2
|1332>    1      1.600000      -9.504310  2
|1333>    2      0.320000      -0.151370  2
|1334>   f 1
|1335>    1      1.000000000    0.000000000 2
|1336> end
|1337> Ti>    4.00000000000   -3.25401964873   -2.96109353596   -7.78013072764
|1338> NewECP
|1339> N_core 0
|1340>   lmax f
|1341>   s 2
|1342>    1      0.860000       9.191690  2
|1343>    2      0.172000       0.008301  2
|1344>   p 2
|1345>    1      0.860000      17.997720  2
|1346>    2      0.172000      -0.032600  2
|1347>   d 2
|1348>    1      1.600000      -9.504310  2
|1349>    2      0.320000      -0.151370  2
|1350>   f 1
|1351>    1      1.000000000    0.000000000 2
|1352> end
|1353> Ti>    4.00000000000    0.00000000000    4.44164030394   -7.78013072764
|1354> NewECP
|1355> N_core 0
|1356>   lmax f
|1357>   s 2
|1358>    1      0.860000       9.191690  2
|1359>    2      0.172000       0.008301  2
|1360>   p 2
|1361>    1      0.860000      17.997720  2
|1362>    2      0.172000      -0.032600  2
|1363>   d 2
|1364>    1      1.600000      -9.504310  2
|1365>    2      0.320000      -0.151370  2
|1366>   f 1
|1367>    1      1.000000000    0.000000000 2
|1368> end
|1369> Ti>    4.00000000000    0.00000000000   -4.44164030394   -7.78013072764
|1370> NewECP
|1371> N_core 0
|1372>   lmax f
|1373>   s 2
|1374>    1      0.860000       9.191690  2
|1375>    2      0.172000       0.008301  2
|1376>   p 2
|1377>    1      0.860000      17.997720  2
|1378>    2      0.172000      -0.032600  2
|1379>   d 2
|1380>    1      1.600000      -9.504310  2
|1381>    2      0.320000      -0.151370  2
|1382>   f 1
|1383>    1      1.000000000    0.000000000 2
|1384> end
|1385> Ti>    4.00000000000   -3.25401964873    7.40273383991   -4.52611107891
|1386> NewECP
|1387> N_core 0
|1388>   lmax f
|1389>   s 2
|1390>    1      0.860000       9.191690  2
|1391>    2      0.172000       0.008301  2
|1392>   p 2
|1393>    1      0.860000      17.997720  2
|1394>    2      0.172000      -0.032600  2
|1395>   d 2
|1396>    1      1.600000      -9.504310  2
|1397>    2      0.320000      -0.151370  2
|1398>   f 1
|1399>    1      1.000000000    0.000000000 2
|1400> end
|1401> Ti>    4.00000000000    3.25401964873    7.40273383991   -4.52611107891
|1402> NewECP
|1403> N_core 0
|1404>   lmax f
|1405>   s 2
|1406>    1      0.860000       9.191690  2
|1407>    2      0.172000       0.008301  2
|1408>   p 2
|1409>    1      0.860000      17.997720  2
|1410>    2      0.172000      -0.032600  2
|1411>   d 2
|1412>    1      1.600000      -9.504310  2
|1413>    2      0.320000      -0.151370  2
|1414>   f 1
|1415>    1      1.000000000    0.000000000 2
|1416> end
|1417> Ti>    4.00000000000    3.25401964873   -7.40273383991   -4.52611107891
|1418> NewECP
|1419> N_core 0
|1420>   lmax f
|1421>   s 2
|1422>    1      0.860000       9.191690  2
|1423>    2      0.172000       0.008301  2
|1424>   p 2
|1425>    1      0.860000      17.997720  2
|1426>    2      0.172000      -0.032600  2
|1427>   d 2
|1428>    1      1.600000      -9.504310  2
|1429>    2      0.320000      -0.151370  2
|1430>   f 1
|1431>    1      1.000000000    0.000000000 2
|1432> end
|1433> Ti>    4.00000000000   -3.25401964873   -7.40273383991   -4.52611107891
|1434> NewECP
|1435> N_core 0
|1436>   lmax f
|1437>   s 2
|1438>    1      0.860000       9.191690  2
|1439>    2      0.172000       0.008301  2
|1440>   p 2
|1441>    1      0.860000      17.997720  2
|1442>    2      0.172000      -0.032600  2
|1443>   d 2
|1444>    1      1.600000      -9.504310  2
|1445>    2      0.320000      -0.151370  2
|1446>   f 1
|1447>    1      1.000000000    0.000000000 2
|1448> end
|1449>   end
|1450> endd                         ****END OF INPUT****
================================================================================

                       ****************************
                       * Single Point Calculation *
                       ****************************

---------------------------------
CARTESIAN COORDINATES (ANGSTROEM)
---------------------------------
  O      0.000000    0.000000    0.000000
  Ti     0.000000    1.480547   -1.272091
  Ti     0.000000   -1.480547   -1.272091
  Ti     0.000000    0.000000    1.981928
  O     -0.000000    0.000000   -2.544183
  O     -1.981928    1.480547   -1.272091
  O      1.981928    1.480547   -1.272091
  O      1.981928   -1.480547   -1.272091
  O     -1.981928   -1.480547   -1.272091
  Ti>   -3.254020    0.000000   -1.272091
  Ti>    3.254020    0.000000   -1.272091
  Ti>    0.000000    2.961094    1.981928
  Ti>    0.000000   -2.961094    1.981928
  Ti>   -3.254020    1.480547    1.981928
  Ti>    3.254020    1.480547    1.981928
  Ti>    3.254020   -1.480547    1.981928
  Ti>   -3.254020   -1.480547    1.981928
  Ti>    0.000000    0.000000   -4.526111
  Ti>   -3.254020    2.961094   -1.272091
  Ti>    3.254020    2.961094   -1.272091
  Ti>    3.254020   -2.961094   -1.272091
  Ti>   -3.254020   -2.961094   -1.272091
  Ti>    0.000000    4.441640   -1.272091
  Ti>    0.000000   -4.441640   -1.272091
  Ti>    0.000000    2.961094   -4.526111
  Ti>    0.000000   -2.961094   -4.526111
  Ti>    0.000000    1.480547    5.235948
  Ti>    0.000000   -1.480547    5.235948
  Ti>   -3.254020    1.480547   -4.526111
  Ti>    3.254020    1.480547   -4.526111
  Ti>    3.254020   -1.480547   -4.526111
  Ti>   -3.254020   -1.480547   -4.526111
  Ti>   -3.254020    4.441640    1.981928
  Ti>    3.254020    4.441640    1.981928
  Ti>    3.254020   -4.441640    1.981928
  Ti>   -3.254020   -4.441640    1.981928
  Ti>   -3.254020    0.000000    5.235948
  Ti>    3.254020    0.000000    5.235948
  Ti>    0.000000    5.922187    1.981928
  Ti>    0.000000   -5.922187    1.981928
  Ti>   -6.508039    1.480547   -1.272091
  Ti>    6.508039    1.480547   -1.272091
  Ti>    6.508039   -1.480547   -1.272091
  Ti>   -6.508039   -1.480547   -1.272091
  Ti>   -6.508039    0.000000    1.981928
  Ti>    6.508039    0.000000    1.981928
  Ti>   -3.254020    2.961094    5.235948
  Ti>    3.254020    2.961094    5.235948
  Ti>    3.254020   -2.961094    5.235948
  Ti>   -3.254020   -2.961094    5.235948
  Ti>    0.000000    4.441640    5.235948
  Ti>    0.000000   -4.441640    5.235948
  Ti>   -3.254020    5.922187   -1.272091
  Ti>    3.254020    5.922187   -1.272091
  Ti>    3.254020   -5.922187   -1.272091
  Ti>   -3.254020   -5.922187   -1.272091
  Ti>   -3.254020    4.441640   -4.526111
  Ti>    3.254020    4.441640   -4.526111
  Ti>    3.254020   -4.441640   -4.526111
  Ti>   -3.254020   -4.441640   -4.526111
  Ti>   -6.508039    2.961094    1.981928
  Ti>    6.508039    2.961094    1.981928
  Ti>    6.508039   -2.961094    1.981928
  Ti>   -6.508039   -2.961094    1.981928
  Ti>    0.000000    5.922187   -4.526111
  Ti>    0.000000   -5.922187   -4.526111
  Ti>    0.000000    7.402734   -1.272091
  Ti>    0.000000   -7.402734   -1.272091
  Ti>    0.000000    1.480547   -7.780131
  Ti>    0.000000   -1.480547   -7.780131
  Ti>   -6.508039    0.000000   -4.526111
  Ti>    6.508039    0.000000   -4.526111
  Ti>   -6.508039    4.441640   -1.272091
  Ti>    6.508039    4.441640   -1.272091
  Ti>    6.508039   -4.441640   -1.272091
  Ti>   -6.508039   -4.441640   -1.272091
  Ti>   -3.254020    7.402734    1.981928
  Ti>    3.254020    7.402734    1.981928
  Ti>    3.254020   -7.402734    1.981928
  Ti>   -3.254020   -7.402734    1.981928
  Ti>   -3.254020    0.000000   -7.780131
  Ti>    3.254020    0.000000   -7.780131
  Ti>   -6.508039    2.961094   -4.526111
  Ti>    6.508039    2.961094   -4.526111
  Ti>    6.508039   -2.961094   -4.526111
  Ti>   -6.508039   -2.961094   -4.526111
  Ti>    0.000000    0.000000    8.489968
  Ti>   -3.254020    2.961094   -7.780131
  Ti>    3.254020    2.961094   -7.780131
  Ti>    3.254020   -2.961094   -7.780131
  Ti>   -3.254020   -2.961094   -7.780131
  Ti>    0.000000    4.441640   -7.780131
  Ti>    0.000000   -4.441640   -7.780131
  Ti>   -3.254020    7.402734   -4.526111
  Ti>    3.254020    7.402734   -4.526111
  Ti>    3.254020   -7.402734   -4.526111
  Ti>   -3.254020   -7.402734   -4.526111

----------------------------
CARTESIAN COORDINATES (A.U.)
----------------------------
  NO LB      ZA    FRAG     MASS         X           Y           Z
   0 O     0.0000    0     0.000    0.000000    0.000000    0.000000
   1 Ti   22.0000    0    47.900    0.000000    2.797828   -2.403904
   2 Ti   22.0000    0    47.900    0.000000   -2.797828   -2.403904
   3 Ti   22.0000    0    47.900    0.000000    0.000000    3.745302
   4 O     8.0000    0    15.999   -0.000000    0.000000   -4.807809
   5 O     8.0000    0    15.999   -3.745302    2.797828   -2.403904
   6 O     8.0000    0    15.999    3.745302    2.797828   -2.403904
   7 O     8.0000    0    15.999    3.745302   -2.797828   -2.403904
   8 O     8.0000    0    15.999   -3.745302   -2.797828   -2.403904
   9 Ti>   4.0000    0     0.000   -6.149206    0.000000   -2.403904
  10 Ti>   4.0000    0     0.000    6.149206    0.000000   -2.403904
  11 Ti>   4.0000    0     0.000    0.000000    5.595656    3.745302
  12 Ti>   4.0000    0     0.000    0.000000   -5.595656    3.745302
  13 Ti>   4.0000    0     0.000   -6.149206    2.797828    3.745302
  14 Ti>   4.0000    0     0.000    6.149206    2.797828    3.745302
  15 Ti>   4.0000    0     0.000    6.149206   -2.797828    3.745302
  16 Ti>   4.0000    0     0.000   -6.149206   -2.797828    3.745302
  17 Ti>   4.0000    0     0.000    0.000000    0.000000   -8.553110
  18 Ti>   4.0000    0     0.000   -6.149206    5.595656   -2.403904
  19 Ti>   4.0000    0     0.000    6.149206    5.595656   -2.403904
  20 Ti>   4.0000    0     0.000    6.149206   -5.595656   -2.403904
  21 Ti>   4.0000    0     0.000   -6.149206   -5.595656   -2.403904
  22 Ti>   4.0000    0     0.000    0.000000    8.393484   -2.403904
  23 Ti>   4.0000    0     0.000    0.000000   -8.393484   -2.403904
  24 Ti>   4.0000    0     0.000    0.000000    5.595656   -8.553110
  25 Ti>   4.0000    0     0.000    0.000000   -5.595656   -8.553110
  26 Ti>   4.0000    0     0.000    0.000000    2.797828    9.894508
  27 Ti>   4.0000    0     0.000    0.000000   -2.797828    9.894508
  28 Ti>   4.0000    0     0.000   -6.149206    2.797828   -8.553110
  29 Ti>   4.0000    0     0.000    6.149206    2.797828   -8.553110
  30 Ti>   4.0000    0     0.000    6.149206   -2.797828   -8.553110
  31 Ti>   4.0000    0     0.000   -6.149206   -2.797828   -8.553110
  32 Ti>   4.0000    0     0.000   -6.149206    8.393484    3.745302
  33 Ti>   4.0000    0     0.000    6.149206    8.393484    3.745302
  34 Ti>   4.0000    0     0.000    6.149206   -8.393484    3.745302
  35 Ti>   4.0000    0     0.000   -6.149206   -8.393484    3.745302
  36 Ti>   4.0000    0     0.000   -6.149206    0.000000    9.894508
  37 Ti>   4.0000    0     0.000    6.149206    0.000000    9.894508
  38 Ti>   4.0000    0     0.000    0.000000   11.191312    3.745302
  39 Ti>   4.0000    0     0.000    0.000000  -11.191312    3.745302
  40 Ti>   4.0000    0     0.000  -12.298412    2.797828   -2.403904
  41 Ti>   4.0000    0     0.000   12.298412    2.797828   -2.403904
  42 Ti>   4.0000    0     0.000   12.298412   -2.797828   -2.403904
  43 Ti>   4.0000    0     0.000  -12.298412   -2.797828   -2.403904
  44 Ti>   4.0000    0     0.000  -12.298412    0.000000    3.745302
  45 Ti>   4.0000    0     0.000   12.298412    0.000000    3.745302
  46 Ti>   4.0000    0     0.000   -6.149206    5.595656    9.894508
  47 Ti>   4.0000    0     0.000    6.149206    5.595656    9.894508
  48 Ti>   4.0000    0     0.000    6.149206   -5.595656    9.894508
  49 Ti>   4.0000    0     0.000   -6.149206   -5.595656    9.894508
  50 Ti>   4.0000    0     0.000    0.000000    8.393484    9.894508
  51 Ti>   4.0000    0     0.000    0.000000   -8.393484    9.894508
  52 Ti>   4.0000    0     0.000   -6.149206   11.191312   -2.403904
  53 Ti>   4.0000    0     0.000    6.149206   11.191312   -2.403904
  54 Ti>   4.0000    0     0.000    6.149206  -11.191312   -2.403904
  55 Ti>   4.0000    0     0.000   -6.149206  -11.191312   -2.403904
  56 Ti>   4.0000    0     0.000   -6.149206    8.393484   -8.553110
  57 Ti>   4.0000    0     0.000    6.149206    8.393484   -8.553110
  58 Ti>   4.0000    0     0.000    6.149206   -8.393484   -8.553110
  59 Ti>   4.0000    0     0.000   -6.149206   -8.393484   -8.553110
  60 Ti>   4.0000    0     0.000  -12.298412    5.595656    3.745302
  61 Ti>   4.0000    0     0.000   12.298412    5.595656    3.745302
  62 Ti>   4.0000    0     0.000   12.298412   -5.595656    3.745302
  63 Ti>   4.0000    0     0.000  -12.298412   -5.595656    3.745302
  64 Ti>   4.0000    0     0.000    0.000000   11.191312   -8.553110
  65 Ti>   4.0000    0     0.000    0.000000  -11.191312   -8.553110
  66 Ti>   4.0000    0     0.000    0.000000   13.989140   -2.403904
  67 Ti>   4.0000    0     0.000    0.000000  -13.989140   -2.403904
  68 Ti>   4.0000    0     0.000    0.000000    2.797828  -14.702316
  69 Ti>   4.0000    0     0.000    0.000000   -2.797828  -14.702316
  70 Ti>   4.0000    0     0.000  -12.298412    0.000000   -8.553110
  71 Ti>   4.0000    0     0.000   12.298412    0.000000   -8.553110
  72 Ti>   4.0000    0     0.000  -12.298412    8.393484   -2.403904
  73 Ti>   4.0000    0     0.000   12.298412    8.393484   -2.403904
  74 Ti>   4.0000    0     0.000   12.298412   -8.393484   -2.403904
  75 Ti>   4.0000    0     0.000  -12.298412   -8.393484   -2.403904
  76 Ti>   4.0000    0     0.000   -6.149206   13.989140    3.745302
  77 Ti>   4.0000    0     0.000    6.149206   13.989140    3.745302
  78 Ti>   4.0000    0     0.000    6.149206  -13.989140    3.745302
  79 Ti>   4.0000    0     0.000   -6.149206  -13.989140    3.745302
  80 Ti>   4.0000    0     0.000   -6.149206    0.000000  -14.702316
  81 Ti>   4.0000    0     0.000    6.149206    0.000000  -14.702316
  82 Ti>   4.0000    0     0.000  -12.298412    5.595656   -8.553110
  83 Ti>   4.0000    0     0.000   12.298412    5.595656   -8.553110
  84 Ti>   4.0000    0     0.000   12.298412   -5.595656   -8.553110
  85 Ti>   4.0000    0     0.000  -12.298412   -5.595656   -8.553110
  86 Ti>   4.0000    0     0.000    0.000000    0.000000   16.043713
  87 Ti>   4.0000    0     0.000   -6.149206    5.595656  -14.702316
  88 Ti>   4.0000    0     0.000    6.149206    5.595656  -14.702316
  89 Ti>   4.0000    0     0.000    6.149206   -5.595656  -14.702316
  90 Ti>   4.0000    0     0.000   -6.149206   -5.595656  -14.702316
  91 Ti>   4.0000    0     0.000    0.000000    8.393484  -14.702316
  92 Ti>   4.0000    0     0.000    0.000000   -8.393484  -14.702316
  93 Ti>   4.0000    0     0.000   -6.149206   13.989140   -8.553110
  94 Ti>   4.0000    0     0.000    6.149206   13.989140   -8.553110
  95 Ti>   4.0000    0     0.000    6.149206  -13.989140   -8.553110
  96 Ti>   4.0000    0     0.000   -6.149206  -13.989140   -8.553110
> coreless ECP center with (optional) point charge

--------------------------------
INTERNAL COORDINATES (ANGSTROEM)
--------------------------------
 O      0   0   0     0.000000000000     0.00000000     0.00000000
 Ti     1   0   0     1.951982412552     0.00000000     0.00000000
 Ti     1   2   0     1.951982412552    98.66140521     0.00000000
 Ti     1   2   3     1.981928218560   130.66929740   180.00000000
 O      2   1   3     1.951982412546    81.33859479     0.00000000
 O      2   1   3     1.981928218560    90.00000000    90.00000000
 O      2   1   3     1.981928218560    90.00000000   270.00000000
 O      3   1   2     1.981928218560    90.00000000    90.00000000
 O      3   1   2     1.981928218560    90.00000000   270.00000000
 Ti>    6   2   1     1.951982412546   130.66929740   319.33070260
 Ti>    7   2   1     1.951982412546   130.66929740    40.66929740
 Ti>    4   1   2     2.961093535960    90.00000000     0.00000000
 Ti>    4   1   2     2.961093535960    90.00000000   180.00000000
 Ti>    6   2   1     3.493831776302   111.35198170    49.33070260
 Ti>    7   2   1     3.493831776302   111.35198170   310.66929740
 Ti>   15   7   2     2.961093535960    90.00000000    90.00000000
 Ti>   14   6   2     2.961093535960    90.00000000   270.00000000
 Ti>    5   2   1     1.981928218560   130.66929740   180.00000085
 Ti>    6   2   1     1.951982412546   130.66929740   139.33070260
 Ti>    7   2   1     1.951982412546   130.66929740   220.66929740
 Ti>    8   3   1     1.951982412546   130.66929740   139.33070260
 Ti>    9   3   1     1.951982412546   130.66929740   220.66929740
 Ti>    2   1   3     2.961093535960   139.33070260   180.00000000
 Ti>    3   1   2     2.961093535960   139.33070260   180.00000000
 Ti>   18   5   2     2.961093535960    90.00000000     0.00000000
 Ti>   18   5   2     2.961093535960    90.00000000   180.00000000
 Ti>    4   1   2     3.575005259646   155.53493421     0.00000000
 Ti>   27   4   1     2.961093535960    65.53493421   180.00000000
 Ti>    6   2   1     3.493831776293   111.35198170   229.33070260
 Ti>    7   2   1     3.493831776293   111.35198170   130.66929740
 Ti>   30   7   2     2.961093535960    90.00000000   270.00000000
 Ti>   29   6   2     2.961093535960    90.00000000    90.00000000
 Ti>   14   6   2     2.961093535960    90.00000000    90.00000000
 Ti>   15   7   2     2.961093535960    90.00000000   270.00000000
 Ti>   16  15   7     2.961093535960   180.00000000     0.00000000
 Ti>   17  14   6     2.961093535960   180.00000000     0.00000000
 Ti>   14   6   2     3.575005259646   147.96649085   308.66781366
 Ti>   15   7   2     3.575005259646   147.96649085    51.33218634
 Ti>   12   4   1     2.961093535970   179.99999829     0.00000000
 Ti>   13   4   1     2.961093535970   179.99999829     0.00000000
 Ti>   10   6   2     3.575005259655   106.20423161   180.00000085
 Ti>   11   7   2     3.575005259655   106.20423161   180.00000085
 Ti>   42  11   7     2.961093535960    65.53493421   180.00000000
 Ti>   41  10   6     2.961093535960    65.53493421   180.00000000
 Ti>   14   6   2     3.575005259655   109.35411096   206.03650869
 Ti>   15   7   2     3.575005259655   109.35411096   153.96349131
 Ti>   37  14   6     2.961093535960    65.53493421   136.65130933
 Ti>   38  15   7     2.961093535960    65.53493421   223.34869067
 Ti>   38  15   7     2.961093535960   114.46506579    43.34869067
 Ti>   37  14   6     2.961093535960   114.46506579   316.65130933
 Ti>   27   4   1     2.961093535960   114.46506579     0.00000000
 Ti>   28  27   4     2.961093535960   180.00000000     0.00000000
 Ti>   19   6   2     2.961093535970   139.33070260     0.00000000
 Ti>   20   7   2     2.961093535970   139.33070260     0.00000000
 Ti>   21   8   3     2.961093535970   139.33070260     0.00000000
 Ti>   22   9   3     2.961093535970   139.33070260     0.00000000
 Ti>   29   6   2     2.961093535960    90.00000000   270.00000000
 Ti>   30   7   2     2.961093535960    90.00000000    90.00000000
 Ti>   31  30   7     2.961093535960   180.00000000     0.00000000
 Ti>   32  29   6     2.961093535960   180.00000000     0.00000000
 Ti>   45  14   6     2.961093535960    65.53493421   260.80367757
 Ti>   46  15   7     2.961093535960    65.53493421    99.19632243
 Ti>   46  15   7     2.961093535960   114.46506579   279.19632243
 Ti>   45  14   6     2.961093535960   114.46506579    80.80367757
 Ti>   25  18   5     2.961093535970   179.99999829     0.00000000
 Ti>   26  18   5     2.961093535970   179.99999829     0.00000000
 Ti>   23   2   1     2.961093535970   179.99999829     0.00000000
 Ti>   24   3   1     2.961093535970   179.99999829     0.00000000
 Ti>   18   5   2     3.575005259646   155.53493421     0.00000000
 Ti>   69  18   5     2.961093535960    65.53493421   180.00000000
 Ti>   41  10   6     3.575005259646    80.12434158   112.49632148
 Ti>   42  11   7     3.575005259646    80.12434158   247.50367852
 Ti>   41  10   6     2.961093535960   114.46506579     0.00000000
 Ti>   42  11   7     2.961093535960   114.46506579     0.00000000
 Ti>   43  42  11     2.961093535960   180.00000000     0.00000000
 Ti>   44  41  10     2.961093535960   180.00000000     0.00000000
 Ti>   33  14   6     2.961093535970   179.99999829     0.00000000
 Ti>   34  15   7     2.961093535970   179.99999829     0.00000000
 Ti>   35  16  15     2.961093535970   179.99999829     0.00000000
 Ti>   36  17  14     2.961093535970   179.99999829     0.00000000
 Ti>   29   6   2     3.575005259646   147.96649085    51.33218634
 Ti>   30   7   2     3.575005259646   147.96649085   308.66781366
 Ti>   71  41  10     2.961093535960    65.53493421   247.50367852
 Ti>   72  42  11     2.961093535960    65.53493421   112.49632148
 Ti>   72  42  11     2.961093535960   114.46506579   292.49632148
 Ti>   71  41  10     2.961093535960   114.46506579    67.50367852
 Ti>   27   4   1     3.575005259646   131.06986842   180.00000000
 Ti>   81  29   6     2.961093535960    65.53493421   223.34869067
 Ti>   82  30   7     2.961093535960    65.53493421   136.65130933
 Ti>   82  30   7     2.961093535960   114.46506579   316.65130933
 Ti>   81  29   6     2.961093535960   114.46506579    43.34869067
 Ti>   69  18   5     2.961093535960   114.46506579     0.00000000
 Ti>   70  69  18     2.961093535960   180.00000000     0.00000000
 Ti>   57  29   6     2.961093535970   179.99999829     0.00000000
 Ti>   58  30   7     2.961093535970   179.99999829     0.00000000
 Ti>   59  31  30     2.961093535970   179.99999829     0.00000000
 Ti>   60  32  29     2.961093535970   179.99999829     0.00000000

---------------------------
INTERNAL COORDINATES (A.U.)
---------------------------
 O      0   0   0     0.000000000000     0.00000000     0.00000000
 Ti     1   0   0     3.688712177955     0.00000000     0.00000000
 Ti     1   2   0     3.688712177955    98.66140521     0.00000000
 Ti     1   2   3     3.745301550169   130.66929740   180.00000000
 O      2   1   3     3.688712177942    81.33859479     0.00000000
 O      2   1   3     3.745301550169    90.00000000    90.00000000
 O      2   1   3     3.745301550169    90.00000000   270.00000000
 O      3   1   2     3.745301550169    90.00000000    90.00000000
 O      3   1   2     3.745301550169    90.00000000   270.00000000
 Ti>    6   2   1     3.688712177942   130.66929740   319.33070260
 Ti>    7   2   1     3.688712177942   130.66929740    40.66929740
 Ti>    4   1   2     5.595655839889    90.00000000     0.00000000
 Ti>    4   1   2     5.595655839889    90.00000000   180.00000000
 Ti>    6   2   1     6.602385215202   111.35198170    49.33070260
 Ti>    7   2   1     6.602385215202   111.35198170   310.66929740
 Ti>   15   7   2     5.595655839889    90.00000000    90.00000000
 Ti>   14   6   2     5.595655839889    90.00000000   270.00000000
 Ti>    5   2   1     3.745301550169   130.66929740   180.00000085
 Ti>    6   2   1     3.688712177942   130.66929740   139.33070260
 Ti>    7   2   1     3.688712177942   130.66929740   220.66929740
 Ti>    8   3   1     3.688712177942   130.66929740   139.33070260
 Ti>    9   3   1     3.688712177942   130.66929740   220.66929740
 Ti>    2   1   3     5.595655839889   139.33070260   180.00000000
 Ti>    3   1   2     5.595655839889   139.33070260   180.00000000
 Ti>   18   5   2     5.595655839889    90.00000000     0.00000000
 Ti>   18   5   2     5.595655839889    90.00000000   180.00000000
 Ti>    4   1   2     6.755780868059   155.53493421     0.00000000
 Ti>   27   4   1     5.595655839889    65.53493421   180.00000000
 Ti>    6   2   1     6.602385215185   111.35198170   229.33070260
 Ti>    7   2   1     6.602385215185   111.35198170   130.66929740
 Ti>   30   7   2     5.595655839889    90.00000000   270.00000000
 Ti>   29   6   2     5.595655839889    90.00000000    90.00000000
 Ti>   14   6   2     5.595655839889    90.00000000    90.00000000
 Ti>   15   7   2     5.595655839889    90.00000000   270.00000000
 Ti>   16  15   7     5.595655839889   180.00000000     0.00000000
 Ti>   17  14   6     5.595655839889   180.00000000     0.00000000
 Ti>   14   6   2     6.755780868059   147.96649085   308.66781366
 Ti>   15   7   2     6.755780868059   147.96649085    51.33218634
 Ti>   12   4   1     5.595655839908   179.99999829     0.00000000
 Ti>   13   4   1     5.595655839908   179.99999829     0.00000000
 Ti>   10   6   2     6.755780868076   106.20423161   180.00000085
 Ti>   11   7   2     6.755780868076   106.20423161   180.00000085
 Ti>   42  11   7     5.595655839889    65.53493421   180.00000000
 Ti>   41  10   6     5.595655839889    65.53493421   180.00000000
 Ti>   14   6   2     6.755780868076   109.35411096   206.03650869
 Ti>   15   7   2     6.755780868076   109.35411096   153.96349131
 Ti>   37  14   6     5.595655839889    65.53493421   136.65130933
 Ti>   38  15   7     5.595655839889    65.53493421   223.34869067
 Ti>   38  15   7     5.595655839889   114.46506579    43.34869067
 Ti>   37  14   6     5.595655839889   114.46506579   316.65130933
 Ti>   27   4   1     5.595655839889   114.46506579     0.00000000
 Ti>   28  27   4     5.595655839889   180.00000000     0.00000000
 Ti>   19   6   2     5.595655839908   139.33070260     0.00000000
 Ti>   20   7   2     5.595655839908   139.33070260     0.00000000
 Ti>   21   8   3     5.595655839908   139.33070260     0.00000000
 Ti>   22   9   3     5.595655839908   139.33070260     0.00000000
 Ti>   29   6   2     5.595655839889    90.00000000   270.00000000
 Ti>   30   7   2     5.595655839889    90.00000000    90.00000000
 Ti>   31  30   7     5.595655839889   180.00000000     0.00000000
 Ti>   32  29   6     5.595655839889   180.00000000     0.00000000
 Ti>   45  14   6     5.595655839889    65.53493421   260.80367757
 Ti>   46  15   7     5.595655839889    65.53493421    99.19632243
 Ti>   46  15   7     5.595655839889   114.46506579   279.19632243
 Ti>   45  14   6     5.595655839889   114.46506579    80.80367757
 Ti>   25  18   5     5.595655839908   179.99999829     0.00000000
 Ti>   26  18   5     5.595655839908   179.99999829     0.00000000
 Ti>   23   2   1     5.595655839908   179.99999829     0.00000000
 Ti>   24   3   1     5.595655839908   179.99999829     0.00000000
 Ti>   18   5   2     6.755780868059   155.53493421     0.00000000
 Ti>   69  18   5     5.595655839889    65.53493421   180.00000000
 Ti>   41  10   6     6.755780868059    80.12434158   112.49632148
 Ti>   42  11   7     6.755780868059    80.12434158   247.50367852
 Ti>   41  10   6     5.595655839889   114.46506579     0.00000000
 Ti>   42  11   7     5.595655839889   114.46506579     0.00000000
 Ti>   43  42  11     5.595655839889   180.00000000     0.00000000
 Ti>   44  41  10     5.595655839889   180.00000000     0.00000000
 Ti>   33  14   6     5.595655839908   179.99999829     0.00000000
 Ti>   34  15   7     5.595655839908   179.99999829     0.00000000
 Ti>   35  16  15     5.595655839908   179.99999829     0.00000000
 Ti>   36  17  14     5.595655839908   179.99999829     0.00000000
 Ti>   29   6   2     6.755780868059   147.96649085    51.33218634
 Ti>   30   7   2     6.755780868059   147.96649085   308.66781366
 Ti>   71  41  10     5.595655839889    65.53493421   247.50367852
 Ti>   72  42  11     5.595655839889    65.53493421   112.49632148
 Ti>   72  42  11     5.595655839889   114.46506579   292.49632148
 Ti>   71  41  10     5.595655839889   114.46506579    67.50367852
 Ti>   27   4   1     6.755780868059   131.06986842   180.00000000
 Ti>   81  29   6     5.595655839889    65.53493421   223.34869067
 Ti>   82  30   7     5.595655839889    65.53493421   136.65130933
 Ti>   82  30   7     5.595655839889   114.46506579   316.65130933
 Ti>   81  29   6     5.595655839889   114.46506579    43.34869067
 Ti>   69  18   5     5.595655839889   114.46506579     0.00000000
 Ti>   70  69  18     5.595655839889   180.00000000     0.00000000
 Ti>   57  29   6     5.595655839908   179.99999829     0.00000000
 Ti>   58  30   7     5.595655839908   179.99999829     0.00000000
 Ti>   59  31  30     5.595655839908   179.99999829     0.00000000
 Ti>   60  32  29     5.595655839908   179.99999829     0.00000000

---------------------
BASIS SET INFORMATION
---------------------
There are 3 groups of distinct atoms

 Group   1 Type O   : 11s6p2d1f contracted to 5s3p2d1f pattern {62111/411/11/1}
 Group   2 Type Ti  : 17s12p7d2f1g contracted to 6s5p4d2f1g pattern {842111/63111/4111/11/1}
 Group   3 Type Q,> :  contracted to  pattern {}

Atom   0O    basis set group =>   1
Atom   1Ti   basis set group =>   2
Atom   2Ti   basis set group =>   2
Atom   3Ti   basis set group =>   2
Atom   4O    basis set group =>   1
Atom   5O    basis set group =>   1
Atom   6O    basis set group =>   1
Atom   7O    basis set group =>   1
Atom   8O    basis set group =>   1
Atom   9Ti>  basis set group =>   3
Atom  10Ti>  basis set group =>   3
Atom  11Ti>  basis set group =>   3
Atom  12Ti>  basis set group =>   3
Atom  13Ti>  basis set group =>   3
Atom  14Ti>  basis set group =>   3
Atom  15Ti>  basis set group =>   3
Atom  16Ti>  basis set group =>   3
Atom  17Ti>  basis set group =>   3
Atom  18Ti>  basis set group =>   3
Atom  19Ti>  basis set group =>   3
Atom  20Ti>  basis set group =>   3
Atom  21Ti>  basis set group =>   3
Atom  22Ti>  basis set group =>   3
Atom  23Ti>  basis set group =>   3
Atom  24Ti>  basis set group =>   3
Atom  25Ti>  basis set group =>   3
Atom  26Ti>  basis set group =>   3
Atom  27Ti>  basis set group =>   3
Atom  28Ti>  basis set group =>   3
Atom  29Ti>  basis set group =>   3
Atom  30Ti>  basis set group =>   3
Atom  31Ti>  basis set group =>   3
Atom  32Ti>  basis set group =>   3
Atom  33Ti>  basis set group =>   3
Atom  34Ti>  basis set group =>   3
Atom  35Ti>  basis set group =>   3
[...]


                     *******************************
                     * LOEWDIN POPULATION ANALYSIS *
                     *******************************

----------------------
LOEWDIN ATOMIC CHARGES
----------------------
   0 O :   -0.411032
   1 Ti:    0.678311
   2 Ti:    0.678310
   3 Ti:    3.105947
   4 O :   -0.236590
   5 O :   -0.953737
   6 O :   -0.953737
   7 O :   -0.953736
   8 O :   -0.953736
   9 Q :    4.000000
  10 Q :    4.000000
  11 Q :    4.000000
  12 Q :    4.000000
  13 Q :    4.000000
  14 Q :    4.000000
  15 Q :    4.000000
  16 Q :    4.000000
  17 Q :    4.000000
  18 Q :    4.000000
  19 Q :    4.000000
  20 Q :    4.000000
  21 Q :    4.000000
  22 Q :    4.000000
  23 Q :    4.000000
  24 Q :    4.000000
  25 Q :    4.000000
  26 Q :    4.000000
  27 Q :    4.000000
  28 Q :    4.000000
  29 Q :    4.000000
  30 Q :    4.000000
  31 Q :    4.000000
  32 Q :    4.000000
  33 Q :    4.000000
  34 Q :    4.000000
  35 Q :    4.000000
  36 Q :    4.000000
  37 Q :    4.000000
  38 Q :    4.000000
  39 Q :    4.000000
  40 Q :    4.000000
  41 Q :    4.000000
  42 Q :    4.000000
  43 Q :    4.000000
  44 Q :    4.000000
  45 Q :    4.000000
  46 Q :    4.000000
  47 Q :    4.000000
  48 Q :    4.000000
  49 Q :    4.000000
  50 Q :    4.000000
  51 Q :    4.000000
  52 Q :    4.000000
  53 Q :    4.000000
  54 Q :    4.000000
  55 Q :    4.000000
  56 Q :    4.000000
  57 Q :    4.000000
  58 Q :    4.000000
  59 Q :    4.000000
  60 Q :    4.000000
  61 Q :    4.000000
  62 Q :    4.000000
  63 Q :    4.000000
  64 Q :    4.000000
  65 Q :    4.000000
  66 Q :    4.000000
  67 Q :    4.000000
  68 Q :    4.000000
  69 Q :    4.000000
  70 Q :    4.000000
  71 Q :    4.000000
  72 Q :    4.000000
  73 Q :    4.000000
  74 Q :    4.000000
  75 Q :    4.000000
  76 Q :    4.000000
  77 Q :    4.000000
  78 Q :    4.000000
  79 Q :    4.000000
  80 Q :    4.000000
  81 Q :    4.000000
  82 Q :    4.000000
  83 Q :    4.000000
  84 Q :    4.000000
  85 Q :    4.000000
  86 Q :    4.000000
  87 Q :    4.000000
  88 Q :    4.000000
  89 Q :    4.000000
  90 Q :    4.000000
  91 Q :    4.000000
  92 Q :    4.000000
  93 Q :    4.000000
  94 Q :    4.000000
  95 Q :    4.000000
  96 Q :    4.000000

-------------------------------
LOEWDIN REDUCED ORBITAL CHARGES
-------------------------------
  0 O s       :     0.231866  s :     0.231866
      pz      :     0.079218  p :     0.157604
      px      :     0.029778
      py      :     0.048607
      dz2     :     0.009105  d :     0.020661
      dxz     :     0.001036
      dyz     :     0.005843
      dx2y2   :     0.003271
      dxy     :     0.001405
      f0      :     0.000382  f :     0.000901
      f+1     :     0.000019
      f-1     :     0.000100
      f+2     :     0.000246
      f-2     :     0.000066
      f+3     :     0.000025
      f-3     :     0.000063
  1 Tis       :     6.108866  s :     6.108866
      pz      :     4.118912  p :    12.569948
      px      :     4.296651
      py      :     4.154385
      dz2     :     0.266245  d :     2.154696
      dxz     :     0.365106
      dyz     :     0.486770
      dx2y2   :     0.673076
      dxy     :     0.363499
      f0      :     0.039088  f :     0.456495
      f+1     :     0.059255
      f-1     :     0.049218
      f+2     :     0.085820
      f-2     :     0.023833
      f+3     :     0.105538
      f-3     :     0.093742
      g0      :     0.002776  g :     0.031685
      g+1     :     0.002535
      g-1     :     0.001934
      g+2     :     0.006066
      g-2     :     0.001660
      g+3     :     0.003835
      g-3     :     0.002279
      g+4     :     0.005834
      g-4     :     0.004767
  2 Tis       :     6.108865  s :     6.108865
      pz      :     4.118911  p :    12.569947
      px      :     4.296651
      py      :     4.154385
      dz2     :     0.266246  d :     2.154699
      dxz     :     0.365107
      dyz     :     0.486767
      dx2y2   :     0.673080
      dxy     :     0.363499
      f0      :     0.039089  f :     0.456494
      f+1     :     0.059255
      f-1     :     0.049218
      f+2     :     0.085820
      f-2     :     0.023833
      f+3     :     0.105538
      f-3     :     0.093742
      g0      :     0.002776  g :     0.031685
      g+1     :     0.002535
      g-1     :     0.001934
      g+2     :     0.006066
      g-2     :     0.001660
      g+3     :     0.003835
      g-3     :     0.002279
      g+4     :     0.005834
      g-4     :     0.004767
  3 Tis       :     6.009967  s :     6.009967
      pz      :     4.058886  p :    12.062362
      px      :     4.001791
      py      :     4.001686
      dz2     :     0.765822  d :     0.815060
      dxz     :     0.020672
      dyz     :     0.018912
      dx2y2   :     0.004942
      dxy     :     0.004712
      f0      :     0.005657  f :     0.006578
      f+1     :     0.000259
      f-1     :     0.000306
      f+2     :     0.000091
      f-2     :     0.000094
      f+3     :     0.000083
      f-3     :     0.000087
      g0      :     0.000027  g :     0.000085
      g+1     :     0.000008
      g-1     :     0.000009
      g+2     :     0.000004
      g-2     :     0.000002
      g+3     :     0.000000
      g-3     :     0.000001
      g+4     :     0.000035
      g-4     :     0.000000
  4 O s       :     3.466949  s :     3.466949
      pz      :     1.576930  p :     4.749733
      px      :     1.638861
      py      :     1.533942
      dz2     :     0.003341  d :     0.018956
      dxz     :     0.002261
      dyz     :     0.007202
      dx2y2   :     0.003925
      dxy     :     0.002226
      f0      :     0.000184  f :     0.000952
      f+1     :     0.000072
      f-1     :     0.000186
      f+2     :     0.000308
      f-2     :     0.000090
      f+3     :     0.000023
      f-3     :     0.000090
  5 O s       :     3.662044  s :     3.662044
      pz      :     1.757112  p :     5.275856
      px      :     1.739613
      py      :     1.779131
      dz2     :     0.002347  d :     0.015358
      dxz     :     0.003392
      dyz     :     0.000195
      dx2y2   :     0.005680
      dxy     :     0.003744
      f0      :     0.000076  f :     0.000479
      f+1     :     0.000155
      f-1     :     0.000062
      f+2     :     0.000018
      f-2     :     0.000008
      f+3     :     0.000133
      f-3     :     0.000029
  6 O s       :     3.662044  s :     3.662044
      pz      :     1.757112  p :     5.275856
      px      :     1.739613
      py      :     1.779131
      dz2     :     0.002347  d :     0.015358
      dxz     :     0.003392
      dyz     :     0.000195
      dx2y2   :     0.005680
      dxy     :     0.003744
      f0      :     0.000076  f :     0.000479
      f+1     :     0.000155
      f-1     :     0.000062
      f+2     :     0.000018
      f-2     :     0.000008
      f+3     :     0.000133
      f-3     :     0.000029
  7 O s       :     3.662044  s :     3.662044
      pz      :     1.757111  p :     5.275855
      px      :     1.739613
      py      :     1.779131
      dz2     :     0.002347  d :     0.015358
      dxz     :     0.003392
      dyz     :     0.000195
      dx2y2   :     0.005680
      dxy     :     0.003744
      f0      :     0.000076  f :     0.000479
      f+1     :     0.000155
      f-1     :     0.000062
      f+2     :     0.000018
      f-2     :     0.000008
      f+3     :     0.000133
      f-3     :     0.000029
  8 O s       :     3.662044  s :     3.662044
      pz      :     1.757111  p :     5.275855
      px      :     1.739613
      py      :     1.779131
      dz2     :     0.002347  d :     0.015358
      dxz     :     0.003392
      dyz     :     0.000195
      dx2y2   :     0.005680
      dxy     :     0.003744
      f0      :     0.000076  f :     0.000479
      f+1     :     0.000155
      f-1     :     0.000062
      f+2     :     0.000018
      f-2     :     0.000008
      f+3     :     0.000133
      f-3     :     0.000029
  9 Q 
 10 Q 
 11 Q 
 12 Q 
 13 Q 
 14 Q 
 15 Q 
 16 Q 
 17 Q 
 18 Q 
 19 Q 
 20 Q 
 21 Q 
 22 Q 
 23 Q 
 24 Q 
 25 Q 
 26 Q 
 27 Q 
 28 Q 
 29 Q 
 30 Q 
 31 Q 
 32 Q 
 33 Q 
 34 Q 
 35 Q 
 36 Q 
 37 Q 
 38 Q 
 39 Q 
 40 Q 
 41 Q 
 42 Q 
 43 Q 
 44 Q 
 45 Q 
 46 Q 
 47 Q 
 48 Q 
 49 Q 
 50 Q 
 51 Q 
 52 Q 
 53 Q 
 54 Q 
 55 Q 
 56 Q 
 57 Q 
 58 Q 
 59 Q 
 60 Q 
 61 Q 
 62 Q 
 63 Q 
 64 Q 
 65 Q 
 66 Q 
 67 Q 
 68 Q 
 69 Q 
 70 Q 
 71 Q 
 72 Q 
 73 Q 
 74 Q 
 75 Q 
 76 Q 
 77 Q 
 78 Q 
 79 Q 
 80 Q 
 81 Q 
 82 Q 
 83 Q 
 84 Q 
 85 Q 
 86 Q 
 87 Q 
 88 Q 
 89 Q 
 90 Q 
 91 Q 
 92 Q 
 93 Q 
 94 Q 
 95 Q 
 96 Q 


                      *****************************
                      * MAYER POPULATION ANALYSIS *
                      *****************************

  NA   - Mulliken gross atomic population
  ZA   - Total nuclear charge
  QA   - Mulliken gross atomic charge
  VA   - Mayer's total valence
  BVA  - Mayer's bonded valence
  FA   - Mayer's free valence

  ATOM       NA         ZA         QA         VA         BVA        FA
  0 O     -0.0253     0.0000     0.0253    -0.0805    -0.0805     0.0000
  1 Ti    20.0197    22.0000     1.9803     3.1053     3.1053     0.0000
  2 Ti    20.0197    22.0000     1.9803     3.1053     3.1053     0.0000
  3 Ti    18.9108    22.0000     3.0892     0.9255     0.9255     0.0000
  4 O      8.9091     8.0000    -0.9091     1.4090     1.4090     0.0000
  5 O      9.5415     8.0000    -1.5415     0.7919     0.7919    -0.0000
  6 O      9.5415     8.0000    -1.5415     0.7919     0.7919    -0.0000
  7 O      9.5415     8.0000    -1.5415     0.7919     0.7919    -0.0000
  8 O      9.5415     8.0000    -1.5415     0.7919     0.7919    -0.0000
  9 Q      0.0000     4.0000     4.0000     0.0000     0.0000     0.0000
 10 Q      0.0000     4.0000     4.0000     0.0000     0.0000     0.0000
 11 Q      0.0000     4.0000     4.0000     0.0000     0.0000     0.0000
 12 Q      0.0000     4.0000     4.0000     0.0000     0.0000     0.0000
 13 Q      0.0000     4.0000     4.0000     0.0000     0.0000     0.0000
 14 Q      0.0000     4.0000     4.0000     0.0000     0.0000     0.0000
 15 Q      0.0000     4.0000     4.0000     0.0000     0.0000     0.0000
 16 Q      0.0000     4.0000     4.0000     0.0000     0.0000     0.0000
 17 Q      0.0000     4.0000     4.0000     0.0000     0.0000     0.0000
 18 Q      0.0000     4.0000     4.0000     0.0000     0.0000     0.0000
 19 Q      0.0000     4.0000     4.0000     0.0000     0.0000     0.0000
 20 Q      0.0000     4.0000     4.0000     0.0000     0.0000     0.0000
 21 Q      0.0000     4.0000     4.0000     0.0000     0.0000     0.0000
 22 Q      0.0000     4.0000     4.0000     0.0000     0.0000     0.0000
 23 Q      0.0000     4.0000     4.0000     0.0000     0.0000     0.0000
 24 Q      0.0000     4.0000     4.0000     0.0000     0.0000     0.0000
 25 Q      0.0000     4.0000     4.0000     0.0000     0.0000     0.0000
 26 Q      0.0000     4.0000     4.0000     0.0000     0.0000     0.0000
 27 Q      0.0000     4.0000     4.0000     0.0000     0.0000     0.0000
 28 Q      0.0000     4.0000     4.0000     0.0000     0.0000     0.0000
 29 Q      0.0000     4.0000     4.0000     0.0000     0.0000     0.0000
 30 Q      0.0000     4.0000     4.0000     0.0000     0.0000     0.0000
 31 Q      0.0000     4.0000     4.0000     0.0000     0.0000     0.0000
 32 Q      0.0000     4.0000     4.0000     0.0000     0.0000     0.0000
 33 Q      0.0000     4.0000     4.0000     0.0000     0.0000     0.0000
 34 Q      0.0000     4.0000     4.0000     0.0000     0.0000     0.0000
 35 Q      0.0000     4.0000     4.0000     0.0000     0.0000     0.0000
 36 Q      0.0000     4.0000     4.0000     0.0000     0.0000     0.0000
 37 Q      0.0000     4.0000     4.0000     0.0000     0.0000     0.0000
 38 Q      0.0000     4.0000     4.0000     0.0000     0.0000     0.0000
 39 Q      0.0000     4.0000     4.0000     0.0000     0.0000     0.0000
 40 Q      0.0000     4.0000     4.0000     0.0000     0.0000     0.0000
 41 Q      0.0000     4.0000     4.0000     0.0000     0.0000     0.0000
 42 Q      0.0000     4.0000     4.0000     0.0000     0.0000     0.0000
 43 Q      0.0000     4.0000     4.0000     0.0000     0.0000     0.0000
 44 Q      0.0000     4.0000     4.0000     0.0000     0.0000     0.0000
 45 Q      0.0000     4.0000     4.0000     0.0000     0.0000     0.0000
 46 Q      0.0000     4.0000     4.0000     0.0000     0.0000     0.0000
 47 Q      0.0000     4.0000     4.0000     0.0000     0.0000     0.0000
 48 Q      0.0000     4.0000     4.0000     0.0000     0.0000     0.0000
 49 Q      0.0000     4.0000     4.0000     0.0000     0.0000     0.0000
 50 Q      0.0000     4.0000     4.0000     0.0000     0.0000     0.0000
 51 Q      0.0000     4.0000     4.0000     0.0000     0.0000     0.0000
 52 Q      0.0000     4.0000     4.0000     0.0000     0.0000     0.0000
 53 Q      0.0000     4.0000     4.0000     0.0000     0.0000     0.0000
 54 Q      0.0000     4.0000     4.0000     0.0000     0.0000     0.0000
 55 Q      0.0000     4.0000     4.0000     0.0000     0.0000     0.0000
 56 Q      0.0000     4.0000     4.0000     0.0000     0.0000     0.0000
 57 Q      0.0000     4.0000     4.0000     0.0000     0.0000     0.0000
 58 Q      0.0000     4.0000     4.0000     0.0000     0.0000     0.0000
 59 Q      0.0000     4.0000     4.0000     0.0000     0.0000     0.0000
 60 Q      0.0000     4.0000     4.0000     0.0000     0.0000     0.0000
 61 Q      0.0000     4.0000     4.0000     0.0000     0.0000     0.0000
 62 Q      0.0000     4.0000     4.0000     0.0000     0.0000     0.0000
 63 Q      0.0000     4.0000     4.0000     0.0000     0.0000     0.0000
 64 Q      0.0000     4.0000     4.0000     0.0000     0.0000     0.0000
 65 Q      0.0000     4.0000     4.0000     0.0000     0.0000     0.0000
 66 Q      0.0000     4.0000     4.0000     0.0000     0.0000     0.0000
 67 Q      0.0000     4.0000     4.0000     0.0000     0.0000     0.0000
 68 Q      0.0000     4.0000     4.0000     0.0000     0.0000     0.0000
 69 Q      0.0000     4.0000     4.0000     0.0000     0.0000     0.0000
 70 Q      0.0000     4.0000     4.0000     0.0000     0.0000     0.0000
 71 Q      0.0000     4.0000     4.0000     0.0000     0.0000     0.0000
 72 Q      0.0000     4.0000     4.0000     0.0000     0.0000     0.0000
 73 Q      0.0000     4.0000     4.0000     0.0000     0.0000     0.0000
 74 Q      0.0000     4.0000     4.0000     0.0000     0.0000     0.0000
 75 Q      0.0000     4.0000     4.0000     0.0000     0.0000     0.0000
 76 Q      0.0000     4.0000     4.0000     0.0000     0.0000     0.0000
 77 Q      0.0000     4.0000     4.0000     0.0000     0.0000     0.0000
 78 Q      0.0000     4.0000     4.0000     0.0000     0.0000     0.0000
 79 Q      0.0000     4.0000     4.0000     0.0000     0.0000     0.0000
 80 Q      0.0000     4.0000     4.0000     0.0000     0.0000     0.0000
 81 Q      0.0000     4.0000     4.0000     0.0000     0.0000     0.0000
 82 Q      0.0000     4.0000     4.0000     0.0000     0.0000     0.0000
 83 Q      0.0000     4.0000     4.0000     0.0000     0.0000     0.0000
 84 Q      0.0000     4.0000     4.0000     0.0000     0.0000     0.0000
 85 Q      0.0000     4.0000     4.0000     0.0000     0.0000     0.0000
 86 Q      0.0000     4.0000     4.0000     0.0000     0.0000     0.0000
 87 Q      0.0000     4.0000     4.0000     0.0000     0.0000     0.0000
 88 Q      0.0000     4.0000     4.0000     0.0000     0.0000     0.0000
 89 Q      0.0000     4.0000     4.0000     0.0000     0.0000     0.0000
 90 Q      0.0000     4.0000     4.0000     0.0000     0.0000     0.0000
 91 Q      0.0000     4.0000     4.0000     0.0000     0.0000     0.0000
 92 Q      0.0000     4.0000     4.0000     0.0000     0.0000     0.0000
 93 Q      0.0000     4.0000     4.0000     0.0000     0.0000     0.0000
 94 Q      0.0000     4.0000     4.0000     0.0000     0.0000     0.0000
 95 Q      0.0000     4.0000     4.0000     0.0000     0.0000     0.0000
 96 Q      0.0000     4.0000     4.0000     0.0000     0.0000     0.0000

  Mayer bond orders larger than 0.100000
B(  0-O ,  3-Ti) :   0.1120 B(  1-Ti,  2-Ti) :   0.3901 B(  1-Ti,  3-Ti) :   0.3660 
B(  1-Ti,  4-O ) :   0.7538 B(  1-Ti,  5-O ) :   0.7115 B(  1-Ti,  6-O ) :   0.7115 
B(  2-Ti,  3-Ti) :   0.3660 B(  2-Ti,  4-O ) :   0.7538 B(  2-Ti,  7-O ) :   0.7115 
B(  2-Ti,  8-O ) :   0.7115 

-------
TIMINGS
-------

Total SCF time: 0 days 0 hours 0 min 9 sec 

Total time                  ....       9.894 sec
Sum of individual times     ....       9.570 sec  ( 96.7%)

Fock matrix formation       ....       8.003 sec  ( 80.9%)
  XC integration            ....       4.072 sec  ( 50.9% of F)
    Basis function eval.    ....       1.072 sec  ( 26.3% of XC)
    Density eval.           ....       1.259 sec  ( 30.9% of XC)
    XC-Functional eval.     ....       0.158 sec  (  3.9% of XC)
    XC-Potential eval.      ....       1.405 sec  ( 34.5% of XC)
Diagonalization             ....       0.712 sec  (  7.2%)
Density matrix formation    ....       0.028 sec  (  0.3%)
Population analysis         ....       0.018 sec  (  0.2%)
Initial guess               ....       0.036 sec  (  0.4%)
Orbital Transformation      ....       0.000 sec  (  0.0%)
Orbital Orthonormalization  ....       0.000 sec  (  0.0%)
DIIS solution               ....       0.397 sec  (  4.0%)
Grid generation             ....       0.378 sec  (  3.8%)

Maximum memory used throughout the entire SCF-calculation: 75.2 MB

-------------------------   --------------------
FINAL SINGLE POINT ENERGY     -7616.907287973298
-------------------------   --------------------


                            ***************************************
                            *     ORCA property calculations      *
                            ***************************************

                                    ---------------------
                                    Active property flags
                                    ---------------------
   (+) Dipole Moment


------------------------------------------------------------------------------
                       ORCA ELECTRIC PROPERTIES CALCULATION
------------------------------------------------------------------------------

Dipole Moment Calculation                       ... on
Quadrupole Moment Calculation                   ... off
Polarizability Calculation                      ... off
GBWName                                         ... orca.gbw
Electron density                                ... orca.scfp
The origin for moment calculation is the CENTER OF MASS  = ( 0.000000,  0.000000 -1.259101)

-------------
DIPOLE MOMENT
-------------
                                X             Y             Z
Electronic contribution:      0.00000      -0.00003      27.20182
Nuclear contribution   :      0.00000       0.00000    -359.07522
                        -----------------------------------------
Total Dipole Moment    :      0.00000      -0.00003    -331.87341
                        -----------------------------------------
Magnitude (a.u.)       :    331.87341
Magnitude (Debye)      :    843.55516



--------------------
Rotational spectrum 
--------------------
 
Rotational constants in cm-1:     0.028019     0.024001     0.021039 
Rotational constants in MHz :   839.982686   719.535626   630.726258 

 Dipole components along the rotational axes: 
x,y,z [a.u.] :  -331.873406    -0.000028     0.000004 
x,y,z [Debye]:  -843.555160    -0.000072     0.000010 

 

Timings for individual modules:

Sum of individual times         ...       36.976 sec (=   0.616 min)
GTO integral calculation        ...       26.924 sec (=   0.449 min)  72.8 %
SCF iterations                  ...       10.052 sec (=   0.168 min)  27.2 %
                             ****ORCA TERMINATED NORMALLY****
TOTAL RUN TIME: 0 days 0 hours 0 minutes 37 seconds 328 msec
