 **********************************************************************
                          MRCC program system
 **********************************************************************
 
                              Written by
 Mihaly Kallay, Peter R. Nagy, David Mester, Zoltan Rolik, Gyula Samu,
   Jozsef Csontos, Jozsef Csoka, P. Bernat Szabo, Laszlo Gyevi-Nagy,
    Bence Hegely, Istvan Ladjanszki, Lorant Szegedy, Bence Ladoczki,
       Klara Petrov, Mate Farkas, Pal D. Mezei, and Adam Ganyecz
 
        Department of Physical Chemistry and Materials Science
            Budapest University of Technology and Economics
                  Budapest P.O.Box 91, H-1521 Hungary
 
                              www.mrcc.hu
 
                    Release date: February 22, 2020

 ************************ 2022-02-04 20:53:04 *************************
 Executing minp...

 Reading input from MINP...
 
 Input file:
 
calc=LNO-CCSD(T)
scftype=rhf
verbosity=3
mem=490GB
symm=off
unit=angs
scfiguess=small
scfmaxit=1000
scfalg=locfit1

lcorthr=tight
ccmaxit=400
usedisk=0
ccsdalg=dfdirect
ccsdthreads=4
ccsdmkl=thr
ptthreads=4

charge=-18
core=42

basis=special
bse_AVTZ
bse_VTZ
bse_VTZ
bse_VTZ
bse_AVTZ
bse_AVTZ
bse_AVTZ
bse_AVTZ
bse_AVTZ
bse_AVTZ
bse_AVTZ
bse_AVTZ
bse_AVTZ
bse_AVTZ
bse_AVTZ
bse_AVTZ
bse_AVTZ
bse_AVTZ
nothing
nothing
nothing
nothing
nothing
nothing
nothing
nothing
nothing
nothing
nothing
nothing
nothing
nothing
nothing
nothing
nothing
nothing
nothing
nothing
nothing
nothing
nothing
nothing
nothing
nothing
nothing
nothing
nothing
nothing
nothing
nothing
nothing
nothing
nothing
nothing
nothing
nothing
nothing
nothing
nothing
nothing
nothing
nothing
nothing
nothing
nothing
nothing
nothing
nothing
nothing
nothing
nothing
nothing
nothing
nothing
nothing
nothing
nothing
nothing
nothing
nothing
nothing
nothing
nothing
nothing
nothing
nothing
nothing
nothing
nothing
nothing
nothing
nothing
nothing
nothing
nothing
nothing
nothing
nothing
nothing
nothing
nothing
nothing
nothing
nothing
nothing
nothing
nothing
nothing
nothing
nothing
nothing
nothing
nothing
nothing
nothing
nothing
nothing
nothing
nothing
nothing
nothing
nothing
nothing
nothing
nothing
nothing
nothing
nothing
nothing
nothing
nothing
nothing
nothing
nothing
nothing
nothing
nothing
nothing
nothing
nothing
nothing
nothing
nothing
nothing

basis_sm=special
STO-3G
STO-3G
STO-3G
STO-3G
STO-3G
STO-3G
STO-3G
STO-3G
STO-3G
STO-3G
STO-3G
STO-3G
STO-3G
STO-3G
STO-3G
STO-3G
STO-3G
STO-3G
nothing
nothing
nothing
nothing
nothing
nothing
nothing
nothing
nothing
nothing
nothing
nothing
nothing
nothing
nothing
nothing
nothing
nothing
nothing
nothing
nothing
nothing
nothing
nothing
nothing
nothing
nothing
nothing
nothing
nothing
nothing
nothing
nothing
nothing
nothing
nothing
nothing
nothing
nothing
nothing
nothing
nothing
nothing
nothing
nothing
nothing
nothing
nothing
nothing
nothing
nothing
nothing
nothing
nothing
nothing
nothing
nothing
nothing
nothing
nothing
nothing
nothing
nothing
nothing
nothing
nothing
nothing
nothing
nothing
nothing
nothing
nothing
nothing
nothing
nothing
nothing
nothing
nothing
nothing
nothing
nothing
nothing
nothing
nothing
nothing
nothing
nothing
nothing
nothing
nothing
nothing
nothing
nothing
nothing
nothing
nothing
nothing
nothing
nothing
nothing
nothing
nothing
nothing
nothing
nothing
nothing
nothing
nothing
nothing
nothing
nothing
nothing
nothing
nothing
nothing
nothing
nothing
nothing
nothing
nothing
nothing
nothing
nothing
nothing
nothing
nothing

dfbasis_scf=special
bse_AVTZ_autoaux
bse_VTZ_autoaux
bse_VTZ_autoaux
bse_VTZ_autoaux
bse_AVTZ_autoaux
bse_AVTZ_autoaux
bse_AVTZ_autoaux
bse_AVTZ_autoaux
bse_AVTZ_autoaux
bse_AVTZ_autoaux
bse_AVTZ_autoaux
bse_AVTZ_autoaux
bse_AVTZ_autoaux
bse_AVTZ_autoaux
bse_AVTZ_autoaux
bse_AVTZ_autoaux
bse_AVTZ_autoaux
bse_AVTZ_autoaux
nothing
nothing
nothing
nothing
nothing
nothing
nothing
nothing
nothing
nothing
nothing
nothing
nothing
nothing
nothing
nothing
nothing
nothing
nothing
nothing
nothing
nothing
nothing
nothing
nothing
nothing
nothing
nothing
nothing
nothing
nothing
nothing
nothing
nothing
nothing
nothing
nothing
nothing
nothing
nothing
nothing
nothing
nothing
nothing
nothing
nothing
nothing
nothing
nothing
nothing
nothing
nothing
nothing
nothing
nothing
nothing
nothing
nothing
nothing
nothing
nothing
nothing
nothing
nothing
nothing
nothing
nothing
nothing
nothing
nothing
nothing
nothing
nothing
nothing
nothing
nothing
nothing
nothing
nothing
nothing
nothing
nothing
nothing
nothing
nothing
nothing
nothing
nothing
nothing
nothing
nothing
nothing
nothing
nothing
nothing
nothing
nothing
nothing
nothing
nothing
nothing
nothing
nothing
nothing
nothing
nothing
nothing
nothing
nothing
nothing
nothing
nothing
nothing
nothing
nothing
nothing
nothing
nothing
nothing
nothing
nothing
nothing
nothing
nothing
nothing
nothing

dfbasis_cor=special
bse_AVTZ_autoaux
bse_VTZ_autoaux
bse_VTZ_autoaux
bse_VTZ_autoaux
bse_AVTZ_autoaux
bse_AVTZ_autoaux
bse_AVTZ_autoaux
bse_AVTZ_autoaux
bse_AVTZ_autoaux
bse_AVTZ_autoaux
bse_AVTZ_autoaux
bse_AVTZ_autoaux
bse_AVTZ_autoaux
bse_AVTZ_autoaux
bse_AVTZ_autoaux
bse_AVTZ_autoaux
bse_AVTZ_autoaux
bse_AVTZ_autoaux
nothing
nothing
nothing
nothing
nothing
nothing
nothing
nothing
nothing
nothing
nothing
nothing
nothing
nothing
nothing
nothing
nothing
nothing
nothing
nothing
nothing
nothing
nothing
nothing
nothing
nothing
nothing
nothing
nothing
nothing
nothing
nothing
nothing
nothing
nothing
nothing
nothing
nothing
nothing
nothing
nothing
nothing
nothing
nothing
nothing
nothing
nothing
nothing
nothing
nothing
nothing
nothing
nothing
nothing
nothing
nothing
nothing
nothing
nothing
nothing
nothing
nothing
nothing
nothing
nothing
nothing
nothing
nothing
nothing
nothing
nothing
nothing
nothing
nothing
nothing
nothing
nothing
nothing
nothing
nothing
nothing
nothing
nothing
nothing
nothing
nothing
nothing
nothing
nothing
nothing
nothing
nothing
nothing
nothing
nothing
nothing
nothing
nothing
nothing
nothing
nothing
nothing
nothing
nothing
nothing
nothing
nothing
nothing
nothing
nothing
nothing
nothing
nothing
nothing
nothing
nothing
nothing
nothing
nothing
nothing
nothing
nothing
nothing
nothing
nothing
nothing

ecp=special
none
none
none
none
none
none
none
none
none
none
none
none
none
none
none
none
none
none
ECP-22
ECP-22
ECP-22
ECP-22
ECP-22
ECP-22
ECP-22
ECP-22
ECP-22
ECP-22
ECP-22
ECP-22
ECP-22
ECP-22
ECP-22
ECP-22
ECP-22
ECP-22
ECP-22
ECP-22
ECP-22
ECP-22
ECP-22
ECP-22
ECP-22
ECP-22
ECP-22
ECP-22
ECP-22
ECP-22
ECP-22
ECP-22
ECP-22
ECP-22
ECP-22
ECP-22
ECP-22
ECP-22
ECP-22
ECP-22
ECP-22
ECP-22
ECP-22
ECP-22
ECP-22
ECP-22
ECP-22
ECP-22
ECP-22
ECP-22
ECP-22
ECP-22
ECP-22
ECP-22
ECP-22
ECP-22
ECP-22
ECP-22
ECP-22
ECP-22
ECP-22
ECP-22
ECP-22
ECP-22
ECP-22
ECP-22
ECP-22
ECP-22
ECP-22
ECP-22
ECP-22
ECP-22
ECP-22
ECP-22
ECP-22
ECP-22
ECP-22
ECP-22
ECP-22
ECP-22
ECP-22
ECP-22
ECP-22
ECP-22
ECP-22
ECP-22
ECP-22
ECP-22
ECP-22
ECP-22
ECP-22
ECP-22
ECP-22
ECP-22
ECP-22
ECP-22
ECP-22
ECP-22
ECP-22
ECP-22
ECP-22
ECP-22
ECP-22
ECP-22
ECP-22
ECP-22
ECP-22
ECP-22
ECP-22
ECP-22
ECP-22
ECP-22
ECP-22
ECP-22
ECP-22
ECP-22
ECP-22
ECP-22
ECP-22
ECP-22
ECP-22
ECP-22
ECP-22
ECP-22
ECP-22
ECP-22

unit=angs
geom=xyz
144
Ti3O15ECP126
O     0.00000000000    0.00000000000    0.00000000000
Ti    0.00000000000    1.48054676798   -1.27209143018
Ti    0.00000000000   -1.48054676798   -1.27209143018
Ti    0.00000000000    0.00000000000    1.98192821856
O    -0.00000000000    0.00000000000   -2.54418286035
O    -1.27209143018    1.48054676798    1.98192821856
O     1.27209143018    1.48054676798    1.98192821856
O     1.27209143018   -1.48054676798    1.98192821856
O    -1.27209143018   -1.48054676798    1.98192821856
O    -1.98192821856    1.48054676798   -1.27209143018
O     1.98192821856    1.48054676798   -1.27209143018
O     1.98192821856   -1.48054676798   -1.27209143018
O    -1.98192821856   -1.48054676798   -1.27209143018
O     0.00000000000    2.96109353596    0.00000000000
O     0.00000000000   -2.96109353596    0.00000000000
O    -0.00000000000    2.96109353596   -2.54418286035
O    -0.00000000000   -2.96109353596   -2.54418286035
O    -0.00000000000    0.00000000000    3.96385643712
Ti   -3.25401964873    0.00000000000   -1.27209143018
Ti    3.25401964873    0.00000000000   -1.27209143018
Ti    0.00000000000    2.96109353596    1.98192821856
Ti    0.00000000000   -2.96109353596    1.98192821856
Ti   -3.25401964873    1.48054676798    1.98192821856
Ti    3.25401964873    1.48054676798    1.98192821856
Ti    3.25401964873   -1.48054676798    1.98192821856
Ti   -3.25401964873   -1.48054676798    1.98192821856
Ti    0.00000000000    0.00000000000   -4.52611107891
Ti   -3.25401964873    2.96109353596   -1.27209143018
Ti    3.25401964873    2.96109353596   -1.27209143018
Ti    3.25401964873   -2.96109353596   -1.27209143018
Ti   -3.25401964873   -2.96109353596   -1.27209143018
Ti    0.00000000000    4.44164030394   -1.27209143018
Ti    0.00000000000   -4.44164030394   -1.27209143018
Ti    0.00000000000    2.96109353596   -4.52611107891
Ti    0.00000000000   -2.96109353596   -4.52611107891
Ti    0.00000000000    1.48054676798    5.23594786729
Ti    0.00000000000   -1.48054676798    5.23594786729
Ti   -3.25401964873    1.48054676798   -4.52611107891
Ti    3.25401964873    1.48054676798   -4.52611107891
Ti    3.25401964873   -1.48054676798   -4.52611107891
Ti   -3.25401964873   -1.48054676798   -4.52611107891
Ti   -3.25401964873    4.44164030394    1.98192821856
Ti    3.25401964873    4.44164030394    1.98192821856
Ti    3.25401964873   -4.44164030394    1.98192821856
Ti   -3.25401964873   -4.44164030394    1.98192821856
Ti   -3.25401964873    0.00000000000    5.23594786729
Ti    3.25401964873    0.00000000000    5.23594786729
Ti    0.00000000000    5.92218707193    1.98192821856
Ti    0.00000000000   -5.92218707193    1.98192821856
Ti   -6.50803929747    1.48054676798   -1.27209143018
Ti    6.50803929747    1.48054676798   -1.27209143018
Ti    6.50803929747   -1.48054676798   -1.27209143018
Ti   -6.50803929747   -1.48054676798   -1.27209143018
Ti   -6.50803929747    0.00000000000    1.98192821856
Ti    6.50803929747    0.00000000000    1.98192821856
Ti   -3.25401964873    2.96109353596    5.23594786729
Ti    3.25401964873    2.96109353596    5.23594786729
Ti    3.25401964873   -2.96109353596    5.23594786729
Ti   -3.25401964873   -2.96109353596    5.23594786729
Ti    0.00000000000    4.44164030394    5.23594786729
Ti    0.00000000000   -4.44164030394    5.23594786729
Ti   -3.25401964873    5.92218707193   -1.27209143018
Ti    3.25401964873    5.92218707193   -1.27209143018
Ti    3.25401964873   -5.92218707193   -1.27209143018
Ti   -3.25401964873   -5.92218707193   -1.27209143018
Ti   -3.25401964873    4.44164030394   -4.52611107891
Ti    3.25401964873    4.44164030394   -4.52611107891
Ti    3.25401964873   -4.44164030394   -4.52611107891
Ti   -3.25401964873   -4.44164030394   -4.52611107891
Ti   -6.50803929747    2.96109353596    1.98192821856
Ti    6.50803929747    2.96109353596    1.98192821856
Ti    6.50803929747   -2.96109353596    1.98192821856
Ti   -6.50803929747   -2.96109353596    1.98192821856
Ti    0.00000000000    5.92218707193   -4.52611107891
Ti    0.00000000000   -5.92218707193   -4.52611107891
Ti    0.00000000000    7.40273383991   -1.27209143018
Ti    0.00000000000   -7.40273383991   -1.27209143018
Ti    0.00000000000    1.48054676798   -7.78013072764
Ti    0.00000000000   -1.48054676798   -7.78013072764
Ti   -6.50803929747    0.00000000000   -4.52611107891
Ti    6.50803929747    0.00000000000   -4.52611107891
Ti   -6.50803929747    4.44164030394   -1.27209143018
Ti    6.50803929747    4.44164030394   -1.27209143018
Ti    6.50803929747   -4.44164030394   -1.27209143018
Ti   -6.50803929747   -4.44164030394   -1.27209143018
Ti   -3.25401964873    7.40273383991    1.98192821856
Ti    3.25401964873    7.40273383991    1.98192821856
Ti    3.25401964873   -7.40273383991    1.98192821856
Ti   -3.25401964873   -7.40273383991    1.98192821856
Ti   -3.25401964873    0.00000000000   -7.78013072764
Ti    3.25401964873    0.00000000000   -7.78013072764
Ti   -6.50803929747    2.96109353596   -4.52611107891
Ti    6.50803929747    2.96109353596   -4.52611107891
Ti    6.50803929747   -2.96109353596   -4.52611107891
Ti   -6.50803929747   -2.96109353596   -4.52611107891
Ti   -6.50803929747    1.48054676798    5.23594786729
Ti    6.50803929747    1.48054676798    5.23594786729
Ti    6.50803929747   -1.48054676798    5.23594786729
Ti   -6.50803929747   -1.48054676798    5.23594786729
Ti    0.00000000000    0.00000000000    8.48996751602
Ti   -3.25401964873    5.92218707193    5.23594786729
Ti    3.25401964873    5.92218707193    5.23594786729
Ti    3.25401964873   -5.92218707193    5.23594786729
Ti   -3.25401964873   -5.92218707193    5.23594786729
Ti   -3.25401964873    2.96109353596   -7.78013072764
Ti    3.25401964873    2.96109353596   -7.78013072764
Ti    3.25401964873   -2.96109353596   -7.78013072764
Ti   -3.25401964873   -2.96109353596   -7.78013072764
Ti    0.00000000000    4.44164030394   -7.78013072764
Ti    0.00000000000   -4.44164030394   -7.78013072764
Ti    0.00000000000    2.96109353596    8.48996751602
Ti    0.00000000000   -2.96109353596    8.48996751602
Ti   -6.50803929747    5.92218707193    1.98192821856
Ti    6.50803929747    5.92218707193    1.98192821856
Ti    6.50803929747   -5.92218707193    1.98192821856
Ti   -6.50803929747   -5.92218707193    1.98192821856
Ti    0.00000000000    7.40273383991    5.23594786729
Ti    0.00000000000   -7.40273383991    5.23594786729
Ti    0.00000000000    8.88328060789    1.98192821856
Ti    0.00000000000   -8.88328060789    1.98192821856
Ti   -3.25401964873    1.48054676798    8.48996751602
Ti    3.25401964873    1.48054676798    8.48996751602
Ti    3.25401964873   -1.48054676798    8.48996751602
Ti   -3.25401964873   -1.48054676798    8.48996751602
Ti   -3.25401964873    7.40273383991   -4.52611107891
Ti    3.25401964873    7.40273383991   -4.52611107891
Ti    3.25401964873   -7.40273383991   -4.52611107891
Ti   -3.25401964873   -7.40273383991   -4.52611107891
Ti   -6.50803929747    4.44164030394    5.23594786729
Ti    6.50803929747    4.44164030394    5.23594786729
Ti    6.50803929747   -4.44164030394    5.23594786729
Ti   -6.50803929747   -4.44164030394    5.23594786729
Ti   -3.25401964873    8.88328060789   -1.27209143018
Ti    3.25401964873    8.88328060789   -1.27209143018
Ti    3.25401964873   -8.88328060789   -1.27209143018
Ti   -3.25401964873   -8.88328060789   -1.27209143018
Ti    0.00000000000    8.88328060789   -4.52611107891
Ti    0.00000000000   -8.88328060789   -4.52611107891
Ti   -3.25401964873    5.92218707193   -7.78013072764
Ti    3.25401964873    5.92218707193   -7.78013072764
Ti    3.25401964873   -5.92218707193   -7.78013072764
Ti   -3.25401964873   -5.92218707193   -7.78013072764
Ti    0.00000000000    7.40273383991   -7.78013072764
Ti    0.00000000000   -7.40273383991   -7.78013072764

qmmm=Amber
pointcharges
10820
     -3.25401964873    0.00000000000    0.70983678838   -2.00000000000
      3.25401964873    0.00000000000    0.70983678838   -2.00000000000
     -3.25401964873    0.00000000000   -1.27209143018    4.00000000000
      3.25401964873    0.00000000000   -1.27209143018    4.00000000000
      0.00000000000    2.96109353596    1.98192821856    4.00000000000
      0.00000000000   -2.96109353596    1.98192821856    4.00000000000
     -3.25401964873    1.48054676798    1.98192821856    4.00000000000
      3.25401964873    1.48054676798    1.98192821856    4.00000000000
      3.25401964873   -1.48054676798    1.98192821856    4.00000000000
     -3.25401964873   -1.48054676798    1.98192821856    4.00000000000
     -3.25401964873    2.96109353596    0.70983678838   -2.00000000000
      3.25401964873    2.96109353596    0.70983678838   -2.00000000000
      3.25401964873   -2.96109353596    0.70983678838   -2.00000000000
     -3.25401964873   -2.96109353596    0.70983678838   -2.00000000000
      0.00000000000    0.00000000000   -4.52611107891    4.00000000000
     -3.25401964873    2.96109353596   -1.27209143018    4.00000000000
      3.25401964873    2.96109353596   -1.27209143018    4.00000000000
      3.25401964873   -2.96109353596   -1.27209143018    4.00000000000
     -3.25401964873   -2.96109353596   -1.27209143018    4.00000000000
     -3.25401964873    0.00000000000    3.25401964873   -2.00000000000
      3.25401964873    0.00000000000    3.25401964873   -2.00000000000
     -3.25401964873    0.00000000000   -3.25401964873   -2.00000000000
      3.25401964873    0.00000000000   -3.25401964873   -2.00000000000
      0.00000000000    4.44164030394   -1.27209143018    4.00000000000
      0.00000000000   -4.44164030394   -1.27209143018    4.00000000000
     -4.52611107891    1.48054676798   -1.27209143018   -2.00000000000
      4.52611107891    1.48054676798   -1.27209143018   -2.00000000000
      4.52611107891   -1.48054676798   -1.27209143018   -2.00000000000
     -4.52611107891   -1.48054676798   -1.27209143018   -2.00000000000
     -1.27209143018    1.48054676798   -4.52611107891   -2.00000000000
      1.27209143018    1.48054676798   -4.52611107891   -2.00000000000
      1.27209143018   -1.48054676798   -4.52611107891   -2.00000000000
     -1.27209143018   -1.48054676798   -4.52611107891   -2.00000000000
     -0.00000000000    2.96109353596    3.96385643712   -2.00000000000
     -0.00000000000   -2.96109353596    3.96385643712   -2.00000000000
     -1.27209143018    4.44164030394    1.98192821856   -2.00000000000
      1.27209143018    4.44164030394    1.98192821856   -2.00000000000
      1.27209143018   -4.44164030394    1.98192821856   -2.00000000000
     -1.27209143018   -4.44164030394    1.98192821856   -2.00000000000
     -1.98192821856    4.44164030394   -1.27209143018   -2.00000000000
      1.98192821856    4.44164030394   -1.27209143018   -2.00000000000
      1.98192821856   -4.44164030394   -1.27209143018   -2.00000000000
     -1.98192821856   -4.44164030394   -1.27209143018   -2.00000000000
      0.00000000000    2.96109353596   -4.52611107891    4.00000000000
      0.00000000000   -2.96109353596   -4.52611107891    4.00000000000
      0.00000000000    1.48054676798    5.23594786729    4.00000000000
      0.00000000000   -1.48054676798    5.23594786729    4.00000000000
     -3.25401964873    2.96109353596    3.25401964873   -2.00000000000
      3.25401964873    2.96109353596    3.25401964873   -2.00000000000
      3.25401964873   -2.96109353596    3.25401964873   -2.00000000000
     -3.25401964873   -2.96109353596    3.25401964873   -2.00000000000
     -3.25401964873    2.96109353596   -3.25401964873   -2.00000000000
      3.25401964873    2.96109353596   -3.25401964873   -2.00000000000
      3.25401964873   -2.96109353596   -3.25401964873   -2.00000000000
     -3.25401964873   -2.96109353596   -3.25401964873   -2.00000000000
     -3.25401964873    1.48054676798   -4.52611107891    4.00000000000
      3.25401964873    1.48054676798   -4.52611107891    4.00000000000
      3.25401964873   -1.48054676798   -4.52611107891    4.00000000000
     -3.25401964873   -1.48054676798   -4.52611107891    4.00000000000
     -1.98192821856    1.48054676798    5.23594786729   -2.00000000000
      1.98192821856    1.48054676798    5.23594786729   -2.00000000000
      1.98192821856   -1.48054676798    5.23594786729   -2.00000000000
     -1.98192821856   -1.48054676798    5.23594786729   -2.00000000000
     -5.23594786729    1.48054676798    1.98192821856   -2.00000000000
      5.23594786729    1.48054676798    1.98192821856   -2.00000000000
      5.23594786729   -1.48054676798    1.98192821856   -2.00000000000
     -5.23594786729   -1.48054676798    1.98192821856   -2.00000000000
     -3.25401964873    4.44164030394    1.98192821856    4.00000000000
      3.25401964873    4.44164030394    1.98192821856    4.00000000000
      3.25401964873   -4.44164030394    1.98192821856    4.00000000000
     -3.25401964873   -4.44164030394    1.98192821856    4.00000000000
      0.00000000000    5.92218707193    0.00000000000   -2.00000000000
      0.00000000000   -5.92218707193    0.00000000000   -2.00000000000
     -3.25401964873    0.00000000000    5.23594786729    4.00000000000
      3.25401964873    0.00000000000    5.23594786729    4.00000000000
      0.00000000000    5.92218707193    1.98192821856    4.00000000000
      0.00000000000   -5.92218707193    1.98192821856    4.00000000000
     -0.00000000000    5.92218707193   -2.54418286035   -2.00000000000
     -0.00000000000   -5.92218707193   -2.54418286035   -2.00000000000
     -4.52611107891    4.44164030394   -1.27209143018   -2.00000000000
      4.52611107891    4.44164030394   -1.27209143018   -2.00000000000
      4.52611107891   -4.44164030394   -1.27209143018   -2.00000000000
     -4.52611107891   -4.44164030394   -1.27209143018   -2.00000000000
     -1.27209143018    4.44164030394   -4.52611107891   -2.00000000000
      1.27209143018    4.44164030394   -4.52611107891   -2.00000000000
      1.27209143018   -4.44164030394   -4.52611107891   -2.00000000000
     -1.27209143018   -4.44164030394   -4.52611107891   -2.00000000000
      0.00000000000    0.00000000000    6.50803929747   -2.00000000000
     -6.50803929747    0.00000000000    0.00000000000   -2.00000000000
      6.50803929747    0.00000000000    0.00000000000   -2.00000000000
      0.00000000000    0.00000000000   -6.50803929747   -2.00000000000
     -3.25401964873    0.00000000000   -5.79820250908   -2.00000000000
      3.25401964873    0.00000000000   -5.79820250908   -2.00000000000
     -3.25401964873    5.92218707193    0.70983678838   -2.00000000000
      3.25401964873    5.92218707193    0.70983678838   -2.00000000000
      3.25401964873   -5.92218707193    0.70983678838   -2.00000000000
     -3.25401964873   -5.92218707193    0.70983678838   -2.00000000000
     -6.50803929747    1.48054676798   -1.27209143018    4.00000000000
      6.50803929747    1.48054676798   -1.27209143018    4.00000000000
      6.50803929747   -1.48054676798   -1.27209143018    4.00000000000
     -6.50803929747   -1.48054676798   -1.27209143018    4.00000000000
     -6.50803929747    0.00000000000    1.98192821856    4.00000000000
      6.50803929747    0.00000000000    1.98192821856    4.00000000000
     -3.25401964873    2.96109353596    5.23594786729    4.00000000000
      3.25401964873    2.96109353596    5.23594786729    4.00000000000
      3.25401964873   -2.96109353596    5.23594786729    4.00000000000
     -3.25401964873   -2.96109353596    5.23594786729    4.00000000000
      0.00000000000    4.44164030394    5.23594786729    4.00000000000
      0.00000000000   -4.44164030394    5.23594786729    4.00000000000
     -3.25401964873    5.92218707193   -1.27209143018    4.00000000000
      3.25401964873    5.92218707193   -1.27209143018    4.00000000000
      3.25401964873   -5.92218707193   -1.27209143018    4.00000000000
     -3.25401964873   -5.92218707193   -1.27209143018    4.00000000000
     -6.50803929747    0.00000000000   -2.54418286035   -2.00000000000
      6.50803929747    0.00000000000   -2.54418286035   -2.00000000000
     -4.52611107891    1.48054676798    5.23594786729   -2.00000000000
      4.52611107891    1.48054676798    5.23594786729   -2.00000000000
      4.52611107891   -1.48054676798    5.23594786729   -2.00000000000
     -4.52611107891   -1.48054676798    5.23594786729   -2.00000000000
     -5.23594786729    1.48054676798   -4.52611107891   -2.00000000000
      5.23594786729    1.48054676798   -4.52611107891   -2.00000000000
      5.23594786729   -1.48054676798   -4.52611107891   -2.00000000000
     -5.23594786729   -1.48054676798   -4.52611107891   -2.00000000000
     -0.00000000000    5.92218707193    3.96385643712   -2.00000000000
     -0.00000000000   -5.92218707193    3.96385643712   -2.00000000000
     -3.25401964873    4.44164030394   -4.52611107891    4.00000000000
      3.25401964873    4.44164030394   -4.52611107891    4.00000000000
      3.25401964873   -4.44164030394   -4.52611107891    4.00000000000
     -3.25401964873   -4.44164030394   -4.52611107891    4.00000000000
     -1.98192821856    4.44164030394    5.23594786729   -2.00000000000
      1.98192821856    4.44164030394    5.23594786729   -2.00000000000
      1.98192821856   -4.44164030394    5.23594786729   -2.00000000000
     -1.98192821856   -4.44164030394    5.23594786729   -2.00000000000
     -5.23594786729    4.44164030394    1.98192821856   -2.00000000000
      5.23594786729    4.44164030394    1.98192821856   -2.00000000000
      5.23594786729   -4.44164030394    1.98192821856   -2.00000000000
     -5.23594786729   -4.44164030394    1.98192821856   -2.00000000000
      0.00000000000    2.96109353596    6.50803929747   -2.00000000000
      0.00000000000   -2.96109353596    6.50803929747   -2.00000000000
     -6.50803929747    2.96109353596    0.00000000000   -2.00000000000
      6.50803929747    2.96109353596    0.00000000000   -2.00000000000
      6.50803929747   -2.96109353596    0.00000000000   -2.00000000000
     -6.50803929747   -2.96109353596    0.00000000000   -2.00000000000
      0.00000000000    2.96109353596   -6.50803929747   -2.00000000000
      0.00000000000   -2.96109353596   -6.50803929747   -2.00000000000
     -3.25401964873    2.96109353596   -5.79820250908   -2.00000000000
      3.25401964873    2.96109353596   -5.79820250908   -2.00000000000
      3.25401964873   -2.96109353596   -5.79820250908   -2.00000000000
     -3.25401964873   -2.96109353596   -5.79820250908   -2.00000000000
     -6.50803929747    2.96109353596    1.98192821856    4.00000000000
      6.50803929747    2.96109353596    1.98192821856    4.00000000000
      6.50803929747   -2.96109353596    1.98192821856    4.00000000000
     -6.50803929747   -2.96109353596    1.98192821856    4.00000000000
      0.00000000000    5.92218707193   -4.52611107891    4.00000000000
      0.00000000000   -5.92218707193   -4.52611107891    4.00000000000
     -3.25401964873    5.92218707193    3.25401964873   -2.00000000000
      3.25401964873    5.92218707193    3.25401964873   -2.00000000000
      3.25401964873   -5.92218707193    3.25401964873   -2.00000000000
     -3.25401964873   -5.92218707193    3.25401964873   -2.00000000000
     -3.25401964873    5.92218707193   -3.25401964873   -2.00000000000
      3.25401964873    5.92218707193   -3.25401964873   -2.00000000000
      3.25401964873   -5.92218707193   -3.25401964873   -2.00000000000
     -3.25401964873   -5.92218707193   -3.25401964873   -2.00000000000
      0.00000000000    7.40273383991   -1.27209143018    4.00000000000
      0.00000000000   -7.40273383991   -1.27209143018    4.00000000000
     -6.50803929747    2.96109353596   -2.54418286035   -2.00000000000
      6.50803929747    2.96109353596   -2.54418286035   -2.00000000000
      6.50803929747   -2.96109353596   -2.54418286035   -2.00000000000
     -6.50803929747   -2.96109353596   -2.54418286035   -2.00000000000
     -6.50803929747    0.00000000000    3.96385643712   -2.00000000000
      6.50803929747    0.00000000000    3.96385643712   -2.00000000000
     -1.27209143018    7.40273383991    1.98192821856   -2.00000000000
      1.27209143018    7.40273383991    1.98192821856   -2.00000000000
      1.27209143018   -7.40273383991    1.98192821856   -2.00000000000
     -1.27209143018   -7.40273383991    1.98192821856   -2.00000000000
     -1.98192821856    7.40273383991   -1.27209143018   -2.00000000000
      1.98192821856    7.40273383991   -1.27209143018   -2.00000000000
      1.98192821856   -7.40273383991   -1.27209143018   -2.00000000000
     -1.98192821856   -7.40273383991   -1.27209143018   -2.00000000000
     -3.25401964873    0.00000000000    7.21787608585   -2.00000000000
      3.25401964873    0.00000000000    7.21787608585   -2.00000000000
      0.00000000000    1.48054676798   -7.78013072764    4.00000000000
      0.00000000000   -1.48054676798   -7.78013072764    4.00000000000
     -6.50803929747    0.00000000000   -4.52611107891    4.00000000000
      6.50803929747    0.00000000000   -4.52611107891    4.00000000000
     -6.50803929747    4.44164030394   -1.27209143018    4.00000000000
      6.50803929747    4.44164030394   -1.27209143018    4.00000000000
      6.50803929747   -4.44164030394   -1.27209143018    4.00000000000
     -6.50803929747   -4.44164030394   -1.27209143018    4.00000000000
     -7.78013072764    1.48054676798    1.98192821856   -2.00000000000
      7.78013072764    1.48054676798    1.98192821856   -2.00000000000
      7.78013072764   -1.48054676798    1.98192821856   -2.00000000000
     -7.78013072764   -1.48054676798    1.98192821856   -2.00000000000
     -1.98192821856    1.48054676798   -7.78013072764   -2.00000000000
      1.98192821856    1.48054676798   -7.78013072764   -2.00000000000
      1.98192821856   -1.48054676798   -7.78013072764   -2.00000000000
     -1.98192821856   -1.48054676798   -7.78013072764   -2.00000000000
     -6.50803929747    2.96109353596    3.96385643712   -2.00000000000
      6.50803929747    2.96109353596    3.96385643712   -2.00000000000
      6.50803929747   -2.96109353596    3.96385643712   -2.00000000000
     -6.50803929747   -2.96109353596    3.96385643712   -2.00000000000
     -4.52611107891    4.44164030394    5.23594786729   -2.00000000000
      4.52611107891    4.44164030394    5.23594786729   -2.00000000000
      4.52611107891   -4.44164030394    5.23594786729   -2.00000000000
     -4.52611107891   -4.44164030394    5.23594786729   -2.00000000000
     -5.23594786729    4.44164030394   -4.52611107891   -2.00000000000
      5.23594786729    4.44164030394   -4.52611107891   -2.00000000000
      5.23594786729   -4.44164030394   -4.52611107891   -2.00000000000
     -5.23594786729   -4.44164030394   -4.52611107891   -2.00000000000
     -3.25401964873    7.40273383991    1.98192821856    4.00000000000
      3.25401964873    7.40273383991    1.98192821856    4.00000000000
      3.25401964873   -7.40273383991    1.98192821856    4.00000000000
     -3.25401964873   -7.40273383991    1.98192821856    4.00000000000
     -3.25401964873    0.00000000000   -7.78013072764    4.00000000000
      3.25401964873    0.00000000000   -7.78013072764    4.00000000000
     -3.25401964873    2.96109353596    7.21787608585   -2.00000000000
      3.25401964873    2.96109353596    7.21787608585   -2.00000000000
      3.25401964873   -2.96109353596    7.21787608585   -2.00000000000
     -3.25401964873   -2.96109353596    7.21787608585   -2.00000000000
     -6.50803929747    2.96109353596   -4.52611107891    4.00000000000
      6.50803929747    2.96109353596   -4.52611107891    4.00000000000
      6.50803929747   -2.96109353596   -4.52611107891    4.00000000000
     -6.50803929747   -2.96109353596   -4.52611107891    4.00000000000
     -6.50803929747    1.48054676798    5.23594786729    4.00000000000
      6.50803929747    1.48054676798    5.23594786729    4.00000000000
      6.50803929747   -1.48054676798    5.23594786729    4.00000000000
     -6.50803929747   -1.48054676798    5.23594786729    4.00000000000
      0.00000000000    0.00000000000    8.48996751602    4.00000000000
     -3.25401964873    5.92218707193    5.23594786729    4.00000000000
      3.25401964873    5.92218707193    5.23594786729    4.00000000000
      3.25401964873   -5.92218707193    5.23594786729    4.00000000000
     -3.25401964873   -5.92218707193    5.23594786729    4.00000000000
     -1.27209143018    1.48054676798    8.48996751602   -2.00000000000
      1.27209143018    1.48054676798    8.48996751602   -2.00000000000
      1.27209143018   -1.48054676798    8.48996751602   -2.00000000000
     -1.27209143018   -1.48054676798    8.48996751602   -2.00000000000
     -8.48996751602    1.48054676798   -1.27209143018   -2.00000000000
      8.48996751602    1.48054676798   -1.27209143018   -2.00000000000
      8.48996751602   -1.48054676798   -1.27209143018   -2.00000000000
     -8.48996751602   -1.48054676798   -1.27209143018   -2.00000000000
     -4.52611107891    7.40273383991   -1.27209143018   -2.00000000000
      4.52611107891    7.40273383991   -1.27209143018   -2.00000000000
      4.52611107891   -7.40273383991   -1.27209143018   -2.00000000000
     -4.52611107891   -7.40273383991   -1.27209143018   -2.00000000000
     -1.27209143018    7.40273383991   -4.52611107891   -2.00000000000
      1.27209143018    7.40273383991   -4.52611107891   -2.00000000000
      1.27209143018   -7.40273383991   -4.52611107891   -2.00000000000
     -1.27209143018   -7.40273383991   -4.52611107891   -2.00000000000
      0.00000000000    5.92218707193    6.50803929747   -2.00000000000
      0.00000000000   -5.92218707193    6.50803929747   -2.00000000000
     -6.50803929747    5.92218707193    0.00000000000   -2.00000000000
      6.50803929747    5.92218707193    0.00000000000   -2.00000000000
      6.50803929747   -5.92218707193    0.00000000000   -2.00000000000
     -6.50803929747   -5.92218707193    0.00000000000   -2.00000000000
      0.00000000000    5.92218707193   -6.50803929747   -2.00000000000
      0.00000000000   -5.92218707193   -6.50803929747   -2.00000000000
      0.00000000000    8.88328060789    0.00000000000   -2.00000000000
      0.00000000000   -8.88328060789    0.00000000000   -2.00000000000
     -3.25401964873    5.92218707193   -5.79820250908   -2.00000000000
      3.25401964873    5.92218707193   -5.79820250908   -2.00000000000
      3.25401964873   -5.92218707193   -5.79820250908   -2.00000000000
     -3.25401964873   -5.92218707193   -5.79820250908   -2.00000000000
     -3.25401964873    2.96109353596   -7.78013072764    4.00000000000
      3.25401964873    2.96109353596   -7.78013072764    4.00000000000
      3.25401964873   -2.96109353596   -7.78013072764    4.00000000000
     -3.25401964873   -2.96109353596   -7.78013072764    4.00000000000
      0.00000000000    4.44164030394   -7.78013072764    4.00000000000
      0.00000000000   -4.44164030394   -7.78013072764    4.00000000000
      0.00000000000    2.96109353596    8.48996751602    4.00000000000
      0.00000000000   -2.96109353596    8.48996751602    4.00000000000
     -6.50803929747    5.92218707193    1.98192821856    4.00000000000
      6.50803929747    5.92218707193    1.98192821856    4.00000000000
      6.50803929747   -5.92218707193    1.98192821856    4.00000000000
     -6.50803929747   -5.92218707193    1.98192821856    4.00000000000
     -0.00000000000    0.00000000000   -9.05222215782   -2.00000000000
      0.00000000000    7.40273383991    5.23594786729    4.00000000000
      0.00000000000   -7.40273383991    5.23594786729    4.00000000000
      0.00000000000    8.88328060789    1.98192821856    4.00000000000
      0.00000000000   -8.88328060789    1.98192821856    4.00000000000
     -7.78013072764    1.48054676798   -4.52611107891   -2.00000000000
      7.78013072764    1.48054676798   -4.52611107891   -2.00000000000
      7.78013072764   -1.48054676798   -4.52611107891   -2.00000000000
     -7.78013072764   -1.48054676798   -4.52611107891   -2.00000000000
     -4.52611107891    1.48054676798   -7.78013072764   -2.00000000000
      4.52611107891    1.48054676798   -7.78013072764   -2.00000000000
      4.52611107891   -1.48054676798   -7.78013072764   -2.00000000000
     -4.52611107891   -1.48054676798   -7.78013072764   -2.00000000000
     -6.50803929747    5.92218707193   -2.54418286035   -2.00000000000
      6.50803929747    5.92218707193   -2.54418286035   -2.00000000000
      6.50803929747   -5.92218707193   -2.54418286035   -2.00000000000
     -6.50803929747   -5.92218707193   -2.54418286035   -2.00000000000
     -1.98192821856    4.44164030394   -7.78013072764   -2.00000000000
      1.98192821856    4.44164030394   -7.78013072764   -2.00000000000
      1.98192821856   -4.44164030394   -7.78013072764   -2.00000000000
     -1.98192821856   -4.44164030394   -7.78013072764   -2.00000000000
     -6.50803929747    0.00000000000    6.50803929747   -2.00000000000
      6.50803929747    0.00000000000    6.50803929747   -2.00000000000
     -3.25401964873    1.48054676798    8.48996751602    4.00000000000
      3.25401964873    1.48054676798    8.48996751602    4.00000000000
      3.25401964873   -1.48054676798    8.48996751602    4.00000000000
     -3.25401964873   -1.48054676798    8.48996751602    4.00000000000
     -0.00000000000    8.88328060789   -2.54418286035   -2.00000000000
     -0.00000000000   -8.88328060789   -2.54418286035   -2.00000000000
     -3.25401964873    7.40273383991   -4.52611107891    4.00000000000
      3.25401964873    7.40273383991   -4.52611107891    4.00000000000
      3.25401964873   -7.40273383991   -4.52611107891    4.00000000000
     -3.25401964873   -7.40273383991   -4.52611107891    4.00000000000
     -1.98192821856    7.40273383991    5.23594786729   -2.00000000000
      1.98192821856    7.40273383991    5.23594786729   -2.00000000000
      1.98192821856   -7.40273383991    5.23594786729   -2.00000000000
     -1.98192821856   -7.40273383991    5.23594786729   -2.00000000000
     -6.50803929747    4.44164030394    5.23594786729    4.00000000000
      6.50803929747    4.44164030394    5.23594786729    4.00000000000
      6.50803929747   -4.44164030394    5.23594786729    4.00000000000
     -6.50803929747   -4.44164030394    5.23594786729    4.00000000000
     -3.25401964873    8.88328060789    0.70983678838   -2.00000000000
      3.25401964873    8.88328060789    0.70983678838   -2.00000000000
      3.25401964873   -8.88328060789    0.70983678838   -2.00000000000
     -3.25401964873   -8.88328060789    0.70983678838   -2.00000000000
     -0.00000000000    2.96109353596   -9.05222215782   -2.00000000000
     -0.00000000000   -2.96109353596   -9.05222215782   -2.00000000000
     -3.25401964873    8.88328060789   -1.27209143018    4.00000000000
      3.25401964873    8.88328060789   -1.27209143018    4.00000000000
      3.25401964873   -8.88328060789   -1.27209143018    4.00000000000
     -3.25401964873   -8.88328060789   -1.27209143018    4.00000000000
     -1.27209143018    4.44164030394    8.48996751602   -2.00000000000
      1.27209143018    4.44164030394    8.48996751602   -2.00000000000
      1.27209143018   -4.44164030394    8.48996751602   -2.00000000000
     -1.27209143018   -4.44164030394    8.48996751602   -2.00000000000
      0.00000000000    8.88328060789   -4.52611107891    4.00000000000
      0.00000000000   -8.88328060789   -4.52611107891    4.00000000000
     -3.25401964873    8.88328060789   -3.25401964873   -2.00000000000
      3.25401964873    8.88328060789   -3.25401964873   -2.00000000000
      3.25401964873   -8.88328060789   -3.25401964873   -2.00000000000
     -3.25401964873   -8.88328060789   -3.25401964873   -2.00000000000
     -3.25401964873    0.00000000000    9.76205894620   -2.00000000000
      3.25401964873    0.00000000000    9.76205894620   -2.00000000000
     -3.25401964873    5.92218707193   -7.78013072764    4.00000000000
      3.25401964873    5.92218707193   -7.78013072764    4.00000000000
      3.25401964873   -5.92218707193   -7.78013072764    4.00000000000
     -3.25401964873   -5.92218707193   -7.78013072764    4.00000000000
     -0.00000000000    0.00000000000   10.47189573458   -2.00000000000
      0.00000000000    7.40273383991   -7.78013072764    4.00000000000
      0.00000000000   -7.40273383991   -7.78013072764    4.00000000000
     -7.78013072764    4.44164030394    1.98192821856   -2.00000000000
      7.78013072764    4.44164030394    1.98192821856   -2.00000000000
      7.78013072764   -4.44164030394    1.98192821856   -2.00000000000
     -7.78013072764   -4.44164030394    1.98192821856   -2.00000000000
     -6.50803929747    0.00000000000   -6.50803929747   -2.00000000000
      6.50803929747    0.00000000000   -6.50803929747   -2.00000000000
     -5.23594786729    7.40273383991    1.98192821856   -2.00000000000
      5.23594786729    7.40273383991    1.98192821856   -2.00000000000
      5.23594786729   -7.40273383991    1.98192821856   -2.00000000000
     -5.23594786729   -7.40273383991    1.98192821856   -2.00000000000
     -6.50803929747    5.92218707193    3.96385643712   -2.00000000000
      6.50803929747    5.92218707193    3.96385643712   -2.00000000000
      6.50803929747   -5.92218707193    3.96385643712   -2.00000000000
     -6.50803929747   -5.92218707193    3.96385643712   -2.00000000000
     -8.48996751602    4.44164030394   -1.27209143018   -2.00000000000
      8.48996751602    4.44164030394   -1.27209143018   -2.00000000000
      8.48996751602   -4.44164030394   -1.27209143018   -2.00000000000
     -8.48996751602   -4.44164030394   -1.27209143018   -2.00000000000
     -6.50803929747    2.96109353596    6.50803929747   -2.00000000000
      6.50803929747    2.96109353596    6.50803929747   -2.00000000000
      6.50803929747   -2.96109353596    6.50803929747   -2.00000000000
     -6.50803929747   -2.96109353596    6.50803929747   -2.00000000000
     -6.50803929747    2.96109353596   -6.50803929747   -2.00000000000
      6.50803929747    2.96109353596   -6.50803929747   -2.00000000000
      6.50803929747   -2.96109353596   -6.50803929747   -2.00000000000
     -6.50803929747   -2.96109353596   -6.50803929747   -2.00000000000
     -0.00000000000    8.88328060789    3.96385643712   -2.00000000000
     -0.00000000000   -8.88328060789    3.96385643712   -2.00000000000
     -9.76205894620    0.00000000000    0.70983678838   -2.00000000000
      9.76205894620    0.00000000000    0.70983678838   -2.00000000000
     -9.76205894620    0.00000000000   -1.27209143018    4.00000000000
      9.76205894620    0.00000000000   -1.27209143018    4.00000000000
     -3.25401964873    5.92218707193    7.21787608585   -2.00000000000
      3.25401964873    5.92218707193    7.21787608585   -2.00000000000
      3.25401964873   -5.92218707193    7.21787608585   -2.00000000000
     -3.25401964873   -5.92218707193    7.21787608585   -2.00000000000
     -6.50803929747    5.92218707193   -4.52611107891    4.00000000000
      6.50803929747    5.92218707193   -4.52611107891    4.00000000000
      6.50803929747   -5.92218707193   -4.52611107891    4.00000000000
     -6.50803929747   -5.92218707193   -4.52611107891    4.00000000000
     -6.50803929747    7.40273383991   -1.27209143018    4.00000000000
      6.50803929747    7.40273383991   -1.27209143018    4.00000000000
      6.50803929747   -7.40273383991   -1.27209143018    4.00000000000
     -6.50803929747   -7.40273383991   -1.27209143018    4.00000000000
     -3.25401964873    8.88328060789    3.25401964873   -2.00000000000
      3.25401964873    8.88328060789    3.25401964873   -2.00000000000
      3.25401964873   -8.88328060789    3.25401964873   -2.00000000000
     -3.25401964873   -8.88328060789    3.25401964873   -2.00000000000
     -7.78013072764    4.44164030394   -4.52611107891   -2.00000000000
      7.78013072764    4.44164030394   -4.52611107891   -2.00000000000
      7.78013072764   -4.44164030394   -4.52611107891   -2.00000000000
     -7.78013072764   -4.44164030394   -4.52611107891   -2.00000000000
     -4.52611107891    4.44164030394   -7.78013072764   -2.00000000000
      4.52611107891    4.44164030394   -7.78013072764   -2.00000000000
      4.52611107891   -4.44164030394   -7.78013072764   -2.00000000000
     -4.52611107891   -4.44164030394   -7.78013072764   -2.00000000000
     -9.76205894620    1.48054676798    1.98192821856    4.00000000000
      9.76205894620    1.48054676798    1.98192821856    4.00000000000
      9.76205894620   -1.48054676798    1.98192821856    4.00000000000
     -9.76205894620   -1.48054676798    1.98192821856    4.00000000000
     -5.23594786729    1.48054676798    8.48996751602   -2.00000000000
      5.23594786729    1.48054676798    8.48996751602   -2.00000000000
      5.23594786729   -1.48054676798    8.48996751602   -2.00000000000
     -5.23594786729   -1.48054676798    8.48996751602   -2.00000000000
     -8.48996751602    1.48054676798    5.23594786729   -2.00000000000
      8.48996751602    1.48054676798    5.23594786729   -2.00000000000
      8.48996751602   -1.48054676798    5.23594786729   -2.00000000000
     -8.48996751602   -1.48054676798    5.23594786729   -2.00000000000
     -3.25401964873    4.44164030394    8.48996751602    4.00000000000
      3.25401964873    4.44164030394    8.48996751602    4.00000000000
      3.25401964873   -4.44164030394    8.48996751602    4.00000000000
     -3.25401964873   -4.44164030394    8.48996751602    4.00000000000
     -4.52611107891    7.40273383991    5.23594786729   -2.00000000000
      4.52611107891    7.40273383991    5.23594786729   -2.00000000000
      4.52611107891   -7.40273383991    5.23594786729   -2.00000000000
     -4.52611107891   -7.40273383991    5.23594786729   -2.00000000000
     -5.23594786729    7.40273383991   -4.52611107891   -2.00000000000
      5.23594786729    7.40273383991   -4.52611107891   -2.00000000000
      5.23594786729   -7.40273383991   -4.52611107891   -2.00000000000
     -5.23594786729   -7.40273383991   -4.52611107891   -2.00000000000
     -9.76205894620    2.96109353596    0.70983678838   -2.00000000000
      9.76205894620    2.96109353596    0.70983678838   -2.00000000000
      9.76205894620   -2.96109353596    0.70983678838   -2.00000000000
     -9.76205894620   -2.96109353596    0.70983678838   -2.00000000000
     -6.50803929747    1.48054676798   -7.78013072764    4.00000000000
      6.50803929747    1.48054676798   -7.78013072764    4.00000000000
      6.50803929747   -1.48054676798   -7.78013072764    4.00000000000
     -6.50803929747   -1.48054676798   -7.78013072764    4.00000000000
     -9.76205894620    2.96109353596   -1.27209143018    4.00000000000
      9.76205894620    2.96109353596   -1.27209143018    4.00000000000
      9.76205894620   -2.96109353596   -1.27209143018    4.00000000000
     -9.76205894620   -2.96109353596   -1.27209143018    4.00000000000
     -9.76205894620    0.00000000000    3.25401964873   -2.00000000000
      9.76205894620    0.00000000000    3.25401964873   -2.00000000000
     -9.76205894620    0.00000000000   -3.25401964873   -2.00000000000
      9.76205894620    0.00000000000   -3.25401964873   -2.00000000000
     -3.25401964873    0.00000000000   -9.76205894620   -2.00000000000
      3.25401964873    0.00000000000   -9.76205894620   -2.00000000000
      0.00000000000    5.92218707193    8.48996751602    4.00000000000
      0.00000000000   -5.92218707193    8.48996751602    4.00000000000
      0.00000000000   10.36382737587   -1.27209143018    4.00000000000
      0.00000000000  -10.36382737587   -1.27209143018    4.00000000000
     -1.27209143018   10.36382737587    1.98192821856   -2.00000000000
      1.27209143018   10.36382737587    1.98192821856   -2.00000000000
      1.27209143018  -10.36382737587    1.98192821856   -2.00000000000
     -1.27209143018  -10.36382737587    1.98192821856   -2.00000000000
     -1.98192821856   10.36382737587   -1.27209143018   -2.00000000000
      1.98192821856   10.36382737587   -1.27209143018   -2.00000000000
      1.98192821856  -10.36382737587   -1.27209143018   -2.00000000000
     -1.98192821856  -10.36382737587   -1.27209143018   -2.00000000000
     -6.50803929747    0.00000000000    8.48996751602    4.00000000000
      6.50803929747    0.00000000000    8.48996751602    4.00000000000
     -3.25401964873    2.96109353596    9.76205894620   -2.00000000000
      3.25401964873    2.96109353596    9.76205894620   -2.00000000000
      3.25401964873   -2.96109353596    9.76205894620   -2.00000000000
     -3.25401964873   -2.96109353596    9.76205894620   -2.00000000000
     -9.76205894620    2.96109353596    3.25401964873   -2.00000000000
      9.76205894620    2.96109353596    3.25401964873   -2.00000000000
      9.76205894620   -2.96109353596    3.25401964873   -2.00000000000
     -9.76205894620   -2.96109353596    3.25401964873   -2.00000000000
     -9.76205894620    2.96109353596   -3.25401964873   -2.00000000000
      9.76205894620    2.96109353596   -3.25401964873   -2.00000000000
      9.76205894620   -2.96109353596   -3.25401964873   -2.00000000000
     -9.76205894620   -2.96109353596   -3.25401964873   -2.00000000000
     -3.25401964873    2.96109353596   -9.76205894620   -2.00000000000
      3.25401964873    2.96109353596   -9.76205894620   -2.00000000000
      3.25401964873   -2.96109353596   -9.76205894620   -2.00000000000
     -3.25401964873   -2.96109353596   -9.76205894620   -2.00000000000
     -3.25401964873    8.88328060789    5.23594786729    4.00000000000
      3.25401964873    8.88328060789    5.23594786729    4.00000000000
      3.25401964873   -8.88328060789    5.23594786729    4.00000000000
     -3.25401964873   -8.88328060789    5.23594786729    4.00000000000
     -0.00000000000    5.92218707193   -9.05222215782   -2.00000000000
     -0.00000000000   -5.92218707193   -9.05222215782   -2.00000000000
     -9.76205894620    1.48054676798   -4.52611107891    4.00000000000
      9.76205894620    1.48054676798   -4.52611107891    4.00000000000
      9.76205894620   -1.48054676798   -4.52611107891    4.00000000000
     -9.76205894620   -1.48054676798   -4.52611107891    4.00000000000
     -0.00000000000    2.96109353596   10.47189573458   -2.00000000000
     -0.00000000000   -2.96109353596   10.47189573458   -2.00000000000
     -9.76205894620    4.44164030394    1.98192821856    4.00000000000
      9.76205894620    4.44164030394    1.98192821856    4.00000000000
      9.76205894620   -4.44164030394    1.98192821856    4.00000000000
     -9.76205894620   -4.44164030394    1.98192821856    4.00000000000
     -5.23594786729    4.44164030394    8.48996751602   -2.00000000000
      5.23594786729    4.44164030394    8.48996751602   -2.00000000000
      5.23594786729   -4.44164030394    8.48996751602   -2.00000000000
     -5.23594786729   -4.44164030394    8.48996751602   -2.00000000000
     -8.48996751602    4.44164030394    5.23594786729   -2.00000000000
      8.48996751602    4.44164030394    5.23594786729   -2.00000000000
      8.48996751602   -4.44164030394    5.23594786729   -2.00000000000
     -8.48996751602   -4.44164030394    5.23594786729   -2.00000000000
     -7.78013072764    7.40273383991    1.98192821856   -2.00000000000
      7.78013072764    7.40273383991    1.98192821856   -2.00000000000
      7.78013072764   -7.40273383991    1.98192821856   -2.00000000000
     -7.78013072764   -7.40273383991    1.98192821856   -2.00000000000
     -1.98192821856    7.40273383991   -7.78013072764   -2.00000000000
      1.98192821856    7.40273383991   -7.78013072764   -2.00000000000
      1.98192821856   -7.40273383991   -7.78013072764   -2.00000000000
     -1.98192821856   -7.40273383991   -7.78013072764   -2.00000000000
     -6.50803929747    5.92218707193    6.50803929747   -2.00000000000
      6.50803929747    5.92218707193    6.50803929747   -2.00000000000
      6.50803929747   -5.92218707193    6.50803929747   -2.00000000000
     -6.50803929747   -5.92218707193    6.50803929747   -2.00000000000
     -6.50803929747    5.92218707193   -6.50803929747   -2.00000000000
      6.50803929747    5.92218707193   -6.50803929747   -2.00000000000
      6.50803929747   -5.92218707193   -6.50803929747   -2.00000000000
     -6.50803929747   -5.92218707193   -6.50803929747   -2.00000000000
      0.00000000000    8.88328060789    6.50803929747   -2.00000000000
      0.00000000000   -8.88328060789    6.50803929747   -2.00000000000
     -6.50803929747    8.88328060789    0.00000000000   -2.00000000000
      6.50803929747    8.88328060789    0.00000000000   -2.00000000000
      6.50803929747   -8.88328060789    0.00000000000   -2.00000000000
     -6.50803929747   -8.88328060789    0.00000000000   -2.00000000000
      0.00000000000    8.88328060789   -6.50803929747   -2.00000000000
      0.00000000000   -8.88328060789   -6.50803929747   -2.00000000000
      0.00000000000    0.00000000000  -11.03415037637    4.00000000000
     -3.25401964873   10.36382737587    1.98192821856    4.00000000000
      3.25401964873   10.36382737587    1.98192821856    4.00000000000
      3.25401964873  -10.36382737587    1.98192821856    4.00000000000
     -3.25401964873  -10.36382737587    1.98192821856    4.00000000000
     -6.50803929747    4.44164030394   -7.78013072764    4.00000000000
      6.50803929747    4.44164030394   -7.78013072764    4.00000000000
      6.50803929747   -4.44164030394   -7.78013072764    4.00000000000
     -6.50803929747   -4.44164030394   -7.78013072764    4.00000000000
     -9.76205894620    0.00000000000    5.23594786729    4.00000000000
      9.76205894620    0.00000000000    5.23594786729    4.00000000000
     -3.25401964873    8.88328060789   -5.79820250908   -2.00000000000
      3.25401964873    8.88328060789   -5.79820250908   -2.00000000000
      3.25401964873   -8.88328060789   -5.79820250908   -2.00000000000
     -3.25401964873   -8.88328060789   -5.79820250908   -2.00000000000
     -6.50803929747    2.96109353596    8.48996751602    4.00000000000
      6.50803929747    2.96109353596    8.48996751602    4.00000000000
      6.50803929747   -2.96109353596    8.48996751602    4.00000000000
     -6.50803929747   -2.96109353596    8.48996751602    4.00000000000
     -6.50803929747    0.00000000000   -9.05222215782   -2.00000000000
      6.50803929747    0.00000000000   -9.05222215782   -2.00000000000
     -6.50803929747    7.40273383991    5.23594786729    4.00000000000
      6.50803929747    7.40273383991    5.23594786729    4.00000000000
      6.50803929747   -7.40273383991    5.23594786729    4.00000000000
     -6.50803929747   -7.40273383991    5.23594786729    4.00000000000
     -6.50803929747    8.88328060789    1.98192821856    4.00000000000
      6.50803929747    8.88328060789    1.98192821856    4.00000000000
      6.50803929747   -8.88328060789    1.98192821856    4.00000000000
     -6.50803929747   -8.88328060789    1.98192821856    4.00000000000
    -11.03415037637    1.48054676798   -1.27209143018   -2.00000000000
     11.03415037637    1.48054676798   -1.27209143018   -2.00000000000
     11.03415037637   -1.48054676798   -1.27209143018   -2.00000000000
    -11.03415037637   -1.48054676798   -1.27209143018   -2.00000000000
     -1.27209143018    1.48054676798  -11.03415037637   -2.00000000000
      1.27209143018    1.48054676798  -11.03415037637   -2.00000000000
      1.27209143018   -1.48054676798  -11.03415037637   -2.00000000000
     -1.27209143018   -1.48054676798  -11.03415037637   -2.00000000000
     -6.50803929747    8.88328060789   -2.54418286035   -2.00000000000
      6.50803929747    8.88328060789   -2.54418286035   -2.00000000000
      6.50803929747   -8.88328060789   -2.54418286035   -2.00000000000
     -6.50803929747   -8.88328060789   -2.54418286035   -2.00000000000
     -1.27209143018    7.40273383991    8.48996751602   -2.00000000000
      1.27209143018    7.40273383991    8.48996751602   -2.00000000000
      1.27209143018   -7.40273383991    8.48996751602   -2.00000000000
     -1.27209143018   -7.40273383991    8.48996751602   -2.00000000000
     -8.48996751602    7.40273383991   -1.27209143018   -2.00000000000
      8.48996751602    7.40273383991   -1.27209143018   -2.00000000000
      8.48996751602   -7.40273383991   -1.27209143018   -2.00000000000
     -8.48996751602   -7.40273383991   -1.27209143018   -2.00000000000
     -9.76205894620    0.00000000000   -5.79820250908   -2.00000000000
      9.76205894620    0.00000000000   -5.79820250908   -2.00000000000
     -4.52611107891   10.36382737587   -1.27209143018   -2.00000000000
      4.52611107891   10.36382737587   -1.27209143018   -2.00000000000
      4.52611107891  -10.36382737587   -1.27209143018   -2.00000000000
     -4.52611107891  -10.36382737587   -1.27209143018   -2.00000000000
     -1.27209143018   10.36382737587   -4.52611107891   -2.00000000000
      1.27209143018   10.36382737587   -4.52611107891   -2.00000000000
      1.27209143018  -10.36382737587   -4.52611107891   -2.00000000000
     -1.27209143018  -10.36382737587   -4.52611107891   -2.00000000000
      0.00000000000    2.96109353596  -11.03415037637    4.00000000000
      0.00000000000   -2.96109353596  -11.03415037637    4.00000000000
     -9.76205894620    5.92218707193    0.70983678838   -2.00000000000
      9.76205894620    5.92218707193    0.70983678838   -2.00000000000
      9.76205894620   -5.92218707193    0.70983678838   -2.00000000000
     -9.76205894620   -5.92218707193    0.70983678838   -2.00000000000
     -9.76205894620    2.96109353596    5.23594786729    4.00000000000
      9.76205894620    2.96109353596    5.23594786729    4.00000000000
      9.76205894620   -2.96109353596    5.23594786729    4.00000000000
     -9.76205894620   -2.96109353596    5.23594786729    4.00000000000
     -9.76205894620    5.92218707193   -1.27209143018    4.00000000000
      9.76205894620    5.92218707193   -1.27209143018    4.00000000000
      9.76205894620   -5.92218707193   -1.27209143018    4.00000000000
     -9.76205894620   -5.92218707193   -1.27209143018    4.00000000000
     -6.50803929747    2.96109353596   -9.05222215782   -2.00000000000
      6.50803929747    2.96109353596   -9.05222215782   -2.00000000000
      6.50803929747   -2.96109353596   -9.05222215782   -2.00000000000
     -6.50803929747   -2.96109353596   -9.05222215782   -2.00000000000
     -3.25401964873    1.48054676798  -11.03415037637    4.00000000000
      3.25401964873    1.48054676798  -11.03415037637    4.00000000000
      3.25401964873   -1.48054676798  -11.03415037637    4.00000000000
     -3.25401964873   -1.48054676798  -11.03415037637    4.00000000000
     -7.78013072764    1.48054676798    8.48996751602   -2.00000000000
      7.78013072764    1.48054676798    8.48996751602   -2.00000000000
      7.78013072764   -1.48054676798    8.48996751602   -2.00000000000
     -7.78013072764   -1.48054676798    8.48996751602   -2.00000000000
     -8.48996751602    1.48054676798   -7.78013072764   -2.00000000000
      8.48996751602    1.48054676798   -7.78013072764   -2.00000000000
      8.48996751602   -1.48054676798   -7.78013072764   -2.00000000000
     -8.48996751602   -1.48054676798   -7.78013072764   -2.00000000000
      0.00000000000   10.36382737587    5.23594786729    4.00000000000
      0.00000000000  -10.36382737587    5.23594786729    4.00000000000
     -9.76205894620    4.44164030394   -4.52611107891    4.00000000000
      9.76205894620    4.44164030394   -4.52611107891    4.00000000000
      9.76205894620   -4.44164030394   -4.52611107891    4.00000000000
     -9.76205894620   -4.44164030394   -4.52611107891    4.00000000000
     -7.78013072764    7.40273383991   -4.52611107891   -2.00000000000
      7.78013072764    7.40273383991   -4.52611107891   -2.00000000000
      7.78013072764   -7.40273383991   -4.52611107891   -2.00000000000
     -7.78013072764   -7.40273383991   -4.52611107891   -2.00000000000
     -4.52611107891    7.40273383991   -7.78013072764   -2.00000000000
      4.52611107891    7.40273383991   -7.78013072764   -2.00000000000
      4.52611107891   -7.40273383991   -7.78013072764   -2.00000000000
     -4.52611107891   -7.40273383991   -7.78013072764   -2.00000000000
     -6.50803929747    8.88328060789    3.96385643712   -2.00000000000
      6.50803929747    8.88328060789    3.96385643712   -2.00000000000
      6.50803929747   -8.88328060789    3.96385643712   -2.00000000000
     -6.50803929747   -8.88328060789    3.96385643712   -2.00000000000
     -3.25401964873    7.40273383991    8.48996751602    4.00000000000
      3.25401964873    7.40273383991    8.48996751602    4.00000000000
      3.25401964873   -7.40273383991    8.48996751602    4.00000000000
     -3.25401964873   -7.40273383991    8.48996751602    4.00000000000
     -9.76205894620    2.96109353596   -5.79820250908   -2.00000000000
      9.76205894620    2.96109353596   -5.79820250908   -2.00000000000
      9.76205894620   -2.96109353596   -5.79820250908   -2.00000000000
     -9.76205894620   -2.96109353596   -5.79820250908   -2.00000000000
     -3.25401964873   10.36382737587   -4.52611107891    4.00000000000
      3.25401964873   10.36382737587   -4.52611107891    4.00000000000
      3.25401964873  -10.36382737587   -4.52611107891    4.00000000000
     -3.25401964873  -10.36382737587   -4.52611107891    4.00000000000
     -1.98192821856   10.36382737587    5.23594786729   -2.00000000000
      1.98192821856   10.36382737587    5.23594786729   -2.00000000000
      1.98192821856  -10.36382737587    5.23594786729   -2.00000000000
     -1.98192821856  -10.36382737587    5.23594786729   -2.00000000000
     -5.23594786729   10.36382737587    1.98192821856   -2.00000000000
      5.23594786729   10.36382737587    1.98192821856   -2.00000000000
      5.23594786729  -10.36382737587    1.98192821856   -2.00000000000
     -5.23594786729  -10.36382737587    1.98192821856   -2.00000000000
      0.00000000000    1.48054676798   11.74398716476    4.00000000000
      0.00000000000   -1.48054676798   11.74398716476    4.00000000000
      0.00000000000   11.84437414385    0.00000000000   -2.00000000000
      0.00000000000  -11.84437414385    0.00000000000   -2.00000000000
     -3.25401964873    5.92218707193    9.76205894620   -2.00000000000
      3.25401964873    5.92218707193    9.76205894620   -2.00000000000
      3.25401964873   -5.92218707193    9.76205894620   -2.00000000000
     -3.25401964873   -5.92218707193    9.76205894620   -2.00000000000
     -9.76205894620    5.92218707193    3.25401964873   -2.00000000000
      9.76205894620    5.92218707193    3.25401964873   -2.00000000000
      9.76205894620   -5.92218707193    3.25401964873   -2.00000000000
     -9.76205894620   -5.92218707193    3.25401964873   -2.00000000000
     -9.76205894620    5.92218707193   -3.25401964873   -2.00000000000
      9.76205894620    5.92218707193   -3.25401964873   -2.00000000000
      9.76205894620   -5.92218707193   -3.25401964873   -2.00000000000
     -9.76205894620   -5.92218707193   -3.25401964873   -2.00000000000
     -3.25401964873    5.92218707193   -9.76205894620   -2.00000000000
      3.25401964873    5.92218707193   -9.76205894620   -2.00000000000
      3.25401964873   -5.92218707193   -9.76205894620   -2.00000000000
     -3.25401964873   -5.92218707193   -9.76205894620   -2.00000000000
     -3.25401964873    8.88328060789    7.21787608585   -2.00000000000
      3.25401964873    8.88328060789    7.21787608585   -2.00000000000
      3.25401964873   -8.88328060789    7.21787608585   -2.00000000000
     -3.25401964873   -8.88328060789    7.21787608585   -2.00000000000
     -6.50803929747    8.88328060789   -4.52611107891    4.00000000000
      6.50803929747    8.88328060789   -4.52611107891    4.00000000000
      6.50803929747   -8.88328060789   -4.52611107891    4.00000000000
     -6.50803929747   -8.88328060789   -4.52611107891    4.00000000000
    -11.03415037637    4.44164030394   -1.27209143018   -2.00000000000
     11.03415037637    4.44164030394   -1.27209143018   -2.00000000000
     11.03415037637   -4.44164030394   -1.27209143018   -2.00000000000
    -11.03415037637   -4.44164030394   -1.27209143018   -2.00000000000
     -1.27209143018    4.44164030394  -11.03415037637   -2.00000000000
      1.27209143018    4.44164030394  -11.03415037637   -2.00000000000
      1.27209143018   -4.44164030394  -11.03415037637   -2.00000000000
     -1.27209143018   -4.44164030394  -11.03415037637   -2.00000000000
     -1.98192821856    1.48054676798   11.74398716476   -2.00000000000
      1.98192821856    1.48054676798   11.74398716476   -2.00000000000
      1.98192821856   -1.48054676798   11.74398716476   -2.00000000000
     -1.98192821856   -1.48054676798   11.74398716476   -2.00000000000
    -11.74398716476    1.48054676798    1.98192821856   -2.00000000000
     11.74398716476    1.48054676798    1.98192821856   -2.00000000000
     11.74398716476   -1.48054676798    1.98192821856   -2.00000000000
    -11.74398716476   -1.48054676798    1.98192821856   -2.00000000000
      0.00000000000   11.84437414385    1.98192821856    4.00000000000
      0.00000000000  -11.84437414385    1.98192821856    4.00000000000
     -0.00000000000    5.92218707193   10.47189573458   -2.00000000000
     -0.00000000000   -5.92218707193   10.47189573458   -2.00000000000
     -0.00000000000   11.84437414385   -2.54418286035   -2.00000000000
     -0.00000000000  -11.84437414385   -2.54418286035   -2.00000000000
     -9.76205894620    0.00000000000    7.21787608585   -2.00000000000
      9.76205894620    0.00000000000    7.21787608585   -2.00000000000
     -3.25401964873    0.00000000000   11.74398716476    4.00000000000
      3.25401964873    0.00000000000   11.74398716476    4.00000000000
     -6.50803929747    5.92218707193    8.48996751602    4.00000000000
      6.50803929747    5.92218707193    8.48996751602    4.00000000000
      6.50803929747   -5.92218707193    8.48996751602    4.00000000000
     -6.50803929747   -5.92218707193    8.48996751602    4.00000000000
     -3.25401964873    8.88328060789   -7.78013072764    4.00000000000
      3.25401964873    8.88328060789   -7.78013072764    4.00000000000
      3.25401964873   -8.88328060789   -7.78013072764    4.00000000000
     -3.25401964873   -8.88328060789   -7.78013072764    4.00000000000
      0.00000000000    8.88328060789    8.48996751602    4.00000000000
      0.00000000000   -8.88328060789    8.48996751602    4.00000000000
    -11.03415037637    1.48054676798    5.23594786729   -2.00000000000
     11.03415037637    1.48054676798    5.23594786729   -2.00000000000
     11.03415037637   -1.48054676798    5.23594786729   -2.00000000000
    -11.03415037637   -1.48054676798    5.23594786729   -2.00000000000
     -5.23594786729    1.48054676798  -11.03415037637   -2.00000000000
      5.23594786729    1.48054676798  -11.03415037637   -2.00000000000
      5.23594786729   -1.48054676798  -11.03415037637   -2.00000000000
     -5.23594786729   -1.48054676798  -11.03415037637   -2.00000000000
     -3.25401964873   11.84437414385    0.70983678838   -2.00000000000
      3.25401964873   11.84437414385    0.70983678838   -2.00000000000
      3.25401964873  -11.84437414385    0.70983678838   -2.00000000000
     -3.25401964873  -11.84437414385    0.70983678838   -2.00000000000
     -6.50803929747   10.36382737587   -1.27209143018    4.00000000000
      6.50803929747   10.36382737587   -1.27209143018    4.00000000000
      6.50803929747  -10.36382737587   -1.27209143018    4.00000000000
     -6.50803929747  -10.36382737587   -1.27209143018    4.00000000000
     -6.50803929747    0.00000000000   10.47189573458   -2.00000000000
      6.50803929747    0.00000000000   10.47189573458   -2.00000000000
     -3.25401964873    4.44164030394  -11.03415037637    4.00000000000
      3.25401964873    4.44164030394  -11.03415037637    4.00000000000
      3.25401964873   -4.44164030394  -11.03415037637    4.00000000000
     -3.25401964873   -4.44164030394  -11.03415037637    4.00000000000
     -7.78013072764    4.44164030394    8.48996751602   -2.00000000000
      7.78013072764    4.44164030394    8.48996751602   -2.00000000000
      7.78013072764   -4.44164030394    8.48996751602   -2.00000000000
     -7.78013072764   -4.44164030394    8.48996751602   -2.00000000000
     -8.48996751602    4.44164030394   -7.78013072764   -2.00000000000
      8.48996751602    4.44164030394   -7.78013072764   -2.00000000000
      8.48996751602   -4.44164030394   -7.78013072764   -2.00000000000
     -8.48996751602   -4.44164030394   -7.78013072764   -2.00000000000
     -3.25401964873   11.84437414385   -1.27209143018    4.00000000000
      3.25401964873   11.84437414385   -1.27209143018    4.00000000000
      3.25401964873  -11.84437414385   -1.27209143018    4.00000000000
     -3.25401964873  -11.84437414385   -1.27209143018    4.00000000000
     -9.76205894620    7.40273383991    1.98192821856    4.00000000000
      9.76205894620    7.40273383991    1.98192821856    4.00000000000
      9.76205894620   -7.40273383991    1.98192821856    4.00000000000
     -9.76205894620   -7.40273383991    1.98192821856    4.00000000000
     -5.23594786729    7.40273383991    8.48996751602   -2.00000000000
      5.23594786729    7.40273383991    8.48996751602   -2.00000000000
      5.23594786729   -7.40273383991    8.48996751602   -2.00000000000
     -5.23594786729   -7.40273383991    8.48996751602   -2.00000000000
     -8.48996751602    7.40273383991    5.23594786729   -2.00000000000
      8.48996751602    7.40273383991    5.23594786729   -2.00000000000
      8.48996751602   -7.40273383991    5.23594786729   -2.00000000000
     -8.48996751602   -7.40273383991    5.23594786729   -2.00000000000
     -4.52611107891   10.36382737587    5.23594786729   -2.00000000000
      4.52611107891   10.36382737587    5.23594786729   -2.00000000000
      4.52611107891  -10.36382737587    5.23594786729   -2.00000000000
     -4.52611107891  -10.36382737587    5.23594786729   -2.00000000000
     -5.23594786729   10.36382737587   -4.52611107891   -2.00000000000
      5.23594786729   10.36382737587   -4.52611107891   -2.00000000000
      5.23594786729  -10.36382737587   -4.52611107891   -2.00000000000
     -5.23594786729  -10.36382737587   -4.52611107891   -2.00000000000
     -9.76205894620    0.00000000000   -7.78013072764    4.00000000000
      9.76205894620    0.00000000000   -7.78013072764    4.00000000000
     -0.00000000000   11.84437414385    3.96385643712   -2.00000000000
     -0.00000000000  -11.84437414385    3.96385643712   -2.00000000000
     -9.76205894620    2.96109353596    7.21787608585   -2.00000000000
      9.76205894620    2.96109353596    7.21787608585   -2.00000000000
      9.76205894620   -2.96109353596    7.21787608585   -2.00000000000
     -9.76205894620   -2.96109353596    7.21787608585   -2.00000000000
      0.00000000000    5.92218707193  -11.03415037637    4.00000000000
      0.00000000000   -5.92218707193  -11.03415037637    4.00000000000
     -3.25401964873    2.96109353596   11.74398716476    4.00000000000
      3.25401964873    2.96109353596   11.74398716476    4.00000000000
      3.25401964873   -2.96109353596   11.74398716476    4.00000000000
     -3.25401964873   -2.96109353596   11.74398716476    4.00000000000
      0.00000000000    4.44164030394   11.74398716476    4.00000000000
      0.00000000000   -4.44164030394   11.74398716476    4.00000000000
     -6.50803929747    7.40273383991   -7.78013072764    4.00000000000
      6.50803929747    7.40273383991   -7.78013072764    4.00000000000
      6.50803929747   -7.40273383991   -7.78013072764    4.00000000000
     -6.50803929747   -7.40273383991   -7.78013072764    4.00000000000
     -9.76205894620    5.92218707193    5.23594786729    4.00000000000
      9.76205894620    5.92218707193    5.23594786729    4.00000000000
      9.76205894620   -5.92218707193    5.23594786729    4.00000000000
     -9.76205894620   -5.92218707193    5.23594786729    4.00000000000
     -6.50803929747    5.92218707193   -9.05222215782   -2.00000000000
      6.50803929747    5.92218707193   -9.05222215782   -2.00000000000
      6.50803929747   -5.92218707193   -9.05222215782   -2.00000000000
     -6.50803929747   -5.92218707193   -9.05222215782   -2.00000000000
     -4.52611107891    1.48054676798   11.74398716476   -2.00000000000
      4.52611107891    1.48054676798   11.74398716476   -2.00000000000
      4.52611107891   -1.48054676798   11.74398716476   -2.00000000000
     -4.52611107891   -1.48054676798   11.74398716476   -2.00000000000
    -11.74398716476    1.48054676798   -4.52611107891   -2.00000000000
     11.74398716476    1.48054676798   -4.52611107891   -2.00000000000
     11.74398716476   -1.48054676798   -4.52611107891   -2.00000000000
    -11.74398716476   -1.48054676798   -4.52611107891   -2.00000000000
      0.00000000000   11.84437414385   -4.52611107891    4.00000000000
      0.00000000000  -11.84437414385   -4.52611107891    4.00000000000
     -6.50803929747    2.96109353596   10.47189573458   -2.00000000000
      6.50803929747    2.96109353596   10.47189573458   -2.00000000000
      6.50803929747   -2.96109353596   10.47189573458   -2.00000000000
     -6.50803929747   -2.96109353596   10.47189573458   -2.00000000000
     -0.00000000000    8.88328060789   -9.05222215782   -2.00000000000
     -0.00000000000   -8.88328060789   -9.05222215782   -2.00000000000
     -3.25401964873   11.84437414385    3.25401964873   -2.00000000000
      3.25401964873   11.84437414385    3.25401964873   -2.00000000000
      3.25401964873  -11.84437414385    3.25401964873   -2.00000000000
     -3.25401964873  -11.84437414385    3.25401964873   -2.00000000000
     -3.25401964873   11.84437414385   -3.25401964873   -2.00000000000
      3.25401964873   11.84437414385   -3.25401964873   -2.00000000000
      3.25401964873  -11.84437414385   -3.25401964873   -2.00000000000
     -3.25401964873  -11.84437414385   -3.25401964873   -2.00000000000
     -1.98192821856    4.44164030394   11.74398716476   -2.00000000000
      1.98192821856    4.44164030394   11.74398716476   -2.00000000000
      1.98192821856   -4.44164030394   11.74398716476   -2.00000000000
     -1.98192821856   -4.44164030394   11.74398716476   -2.00000000000
    -11.74398716476    4.44164030394    1.98192821856   -2.00000000000
     11.74398716476    4.44164030394    1.98192821856   -2.00000000000
     11.74398716476   -4.44164030394    1.98192821856   -2.00000000000
    -11.74398716476   -4.44164030394    1.98192821856   -2.00000000000
     -3.25401964873    0.00000000000  -12.30624180655   -2.00000000000
      3.25401964873    0.00000000000  -12.30624180655   -2.00000000000
     -6.50803929747    8.88328060789    6.50803929747   -2.00000000000
      6.50803929747    8.88328060789    6.50803929747   -2.00000000000
      6.50803929747   -8.88328060789    6.50803929747   -2.00000000000
     -6.50803929747   -8.88328060789    6.50803929747   -2.00000000000
     -6.50803929747    8.88328060789   -6.50803929747   -2.00000000000
      6.50803929747    8.88328060789   -6.50803929747   -2.00000000000
      6.50803929747   -8.88328060789   -6.50803929747   -2.00000000000
     -6.50803929747   -8.88328060789   -6.50803929747   -2.00000000000
     -9.76205894620    5.92218707193   -5.79820250908   -2.00000000000
      9.76205894620    5.92218707193   -5.79820250908   -2.00000000000
      9.76205894620   -5.92218707193   -5.79820250908   -2.00000000000
     -9.76205894620   -5.92218707193   -5.79820250908   -2.00000000000
     -6.50803929747    0.00000000000  -11.03415037637    4.00000000000
      6.50803929747    0.00000000000  -11.03415037637    4.00000000000
     -9.76205894620    2.96109353596   -7.78013072764    4.00000000000
      9.76205894620    2.96109353596   -7.78013072764    4.00000000000
      9.76205894620   -2.96109353596   -7.78013072764    4.00000000000
     -9.76205894620   -2.96109353596   -7.78013072764    4.00000000000
      0.00000000000   10.36382737587   -7.78013072764    4.00000000000
      0.00000000000  -10.36382737587   -7.78013072764    4.00000000000
    -11.03415037637    4.44164030394    5.23594786729   -2.00000000000
     11.03415037637    4.44164030394    5.23594786729   -2.00000000000
     11.03415037637   -4.44164030394    5.23594786729   -2.00000000000
    -11.03415037637   -4.44164030394    5.23594786729   -2.00000000000
     -5.23594786729    4.44164030394  -11.03415037637   -2.00000000000
      5.23594786729    4.44164030394  -11.03415037637   -2.00000000000
      5.23594786729   -4.44164030394  -11.03415037637   -2.00000000000
     -5.23594786729   -4.44164030394  -11.03415037637   -2.00000000000
      0.00000000000    0.00000000000   13.01607859493   -2.00000000000
    -13.01607859493    0.00000000000    0.00000000000   -2.00000000000
     13.01607859493    0.00000000000    0.00000000000   -2.00000000000
      0.00000000000    0.00000000000  -13.01607859493   -2.00000000000
     -9.76205894620    1.48054676798    8.48996751602    4.00000000000
      9.76205894620    1.48054676798    8.48996751602    4.00000000000
      9.76205894620   -1.48054676798    8.48996751602    4.00000000000
     -9.76205894620   -1.48054676798    8.48996751602    4.00000000000
     -9.76205894620    7.40273383991   -4.52611107891    4.00000000000
      9.76205894620    7.40273383991   -4.52611107891    4.00000000000
      9.76205894620   -7.40273383991   -4.52611107891    4.00000000000
     -9.76205894620   -7.40273383991   -4.52611107891    4.00000000000
     -3.25401964873    2.96109353596  -12.30624180655   -2.00000000000
      3.25401964873    2.96109353596  -12.30624180655   -2.00000000000
      3.25401964873   -2.96109353596  -12.30624180655   -2.00000000000
     -3.25401964873   -2.96109353596  -12.30624180655   -2.00000000000
     -7.78013072764   10.36382737587    1.98192821856   -2.00000000000
      7.78013072764   10.36382737587    1.98192821856   -2.00000000000
      7.78013072764  -10.36382737587    1.98192821856   -2.00000000000
     -7.78013072764  -10.36382737587    1.98192821856   -2.00000000000
     -1.98192821856   10.36382737587   -7.78013072764   -2.00000000000
      1.98192821856   10.36382737587   -7.78013072764   -2.00000000000
      1.98192821856  -10.36382737587   -7.78013072764   -2.00000000000
     -1.98192821856  -10.36382737587   -7.78013072764   -2.00000000000
     -6.50803929747    2.96109353596  -11.03415037637    4.00000000000
      6.50803929747    2.96109353596  -11.03415037637    4.00000000000
      6.50803929747   -2.96109353596  -11.03415037637    4.00000000000
     -6.50803929747   -2.96109353596  -11.03415037637    4.00000000000
    -13.01607859493    1.48054676798   -1.27209143018    4.00000000000
     13.01607859493    1.48054676798   -1.27209143018    4.00000000000
     13.01607859493   -1.48054676798   -1.27209143018    4.00000000000
    -13.01607859493   -1.48054676798   -1.27209143018    4.00000000000
    -13.01607859493    0.00000000000    1.98192821856    4.00000000000
     13.01607859493    0.00000000000    1.98192821856    4.00000000000
     -9.76205894620    8.88328060789    0.70983678838   -2.00000000000
      9.76205894620    8.88328060789    0.70983678838   -2.00000000000
      9.76205894620   -8.88328060789    0.70983678838   -2.00000000000
     -9.76205894620   -8.88328060789    0.70983678838   -2.00000000000
     -9.76205894620    8.88328060789   -1.27209143018    4.00000000000
      9.76205894620    8.88328060789   -1.27209143018    4.00000000000
      9.76205894620   -8.88328060789   -1.27209143018    4.00000000000
     -9.76205894620   -8.88328060789   -1.27209143018    4.00000000000
    -13.01607859493    0.00000000000   -2.54418286035   -2.00000000000
     13.01607859493    0.00000000000   -2.54418286035   -2.00000000000
     -6.50803929747   10.36382737587    5.23594786729    4.00000000000
      6.50803929747   10.36382737587    5.23594786729    4.00000000000
      6.50803929747  -10.36382737587    5.23594786729    4.00000000000
     -6.50803929747  -10.36382737587    5.23594786729    4.00000000000
     -4.52611107891    4.44164030394   11.74398716476   -2.00000000000
      4.52611107891    4.44164030394   11.74398716476   -2.00000000000
      4.52611107891   -4.44164030394   11.74398716476   -2.00000000000
     -4.52611107891   -4.44164030394   11.74398716476   -2.00000000000
    -11.74398716476    4.44164030394   -4.52611107891   -2.00000000000
     11.74398716476    4.44164030394   -4.52611107891   -2.00000000000
     11.74398716476   -4.44164030394   -4.52611107891   -2.00000000000
    -11.74398716476   -4.44164030394   -4.52611107891   -2.00000000000
    -11.03415037637    7.40273383991   -1.27209143018   -2.00000000000
     11.03415037637    7.40273383991   -1.27209143018   -2.00000000000
     11.03415037637   -7.40273383991   -1.27209143018   -2.00000000000
    -11.03415037637   -7.40273383991   -1.27209143018   -2.00000000000
[...]
 Iteration  5        0.005079674602       -1.258436470500
 Iteration  6        0.002252062263       -1.258428805641
 Iteration  7        0.000980329752       -1.258442023766
 Iteration  8        0.000374971027       -1.258438027309
 Iteration  9        0.000162341149       -1.258438377600
 Iteration 10        0.000076530140       -1.258441700670
 
 CCSD iteration has converged in 10 steps.
     2210.77 MB memory was utilized by CCSD
 
 T1 diagnostic:      1.860E-02            D1 diagnostic:      7.323E-02
 
 CCSD correlation energy [au]:          -0.071458829349
 
 CPU time [min]: 12175.221                   Wall time [min]:   189.964
 
 Calculation of (T) correction...
 
 Laplace threshold, nquadmin:  1.00E-03   4
 Number of quadrature points:    4
 
     1712.23 MB memory is utilized for (T)

 0%       25%       50%       75%       100%
 |---------|---------|---------|---------| 
 
 (T) correction [au]:                   -0.003544814696
 CCSD(T) correlation energy [au]:       -0.075003644045
 
 CPU time [min]: 12232.028                   Wall time [min]:   190.814
 
 MO:    56
 Number of atoms in domain:      18
 Number of atomic orbitals:     894
 Number of atoms for local DF:   18
 Number of fitting functions:  4623 (100.00%)
 Number of occupied orbitals:    57
 Number of virtual  orbitals:   792
 Number of Cholesky vectors:      7
 MP2 energy in ED [au]:          -0.072574429015
 Number of occupied LNOs:        36  (63.16%)
 Number of virtual  LNOs:       143  (18.06%)
 avg/min projected vLNO norm    1.0000E+00    1.0000E+00
 Number of Cholesky vectors:      6
 MP2 energy in LIS [au]:         -0.072331693622
 Correction for frozen LNO [au]: -0.000242735394     (0.334%)
 Number of NAFs:                552  (11.94%)
 CPU time [min]: 12354.792                   Wall time [min]:   192.823
 

 Direct DF-CCSD(T) calculation
 
 Convergence criterion:  1.0E-05
 
 Number of occupied/virtual/auxiliary orbitals:    36   143   552
    879.77 MB is the minimal memory requirement for (T)
    608.93 MB is the minimal memory requirement for CCSD
 
 MP2 correlation energy [au]:        -1.202808273741
 
 LMP2 domain correlation energy contribution [au]:       -0.072328531418
 
 CPU time [min]: 12355.303                   Wall time [min]:   192.832
 
 
 Starting CCSD iterations...
 
                     Residual norm       Correlation Energy
 Iteration  1        0.292847713706       -1.166151200091
 Iteration  2        0.136772015145       -1.204326245271
 Iteration  3        0.044171954822       -1.211421377667
 Iteration  4        0.012864454079       -1.212084117402
 Iteration  5        0.004693363596       -1.211759941873
 Iteration  6        0.002110863493       -1.211750200290
 Iteration  7        0.000930011110       -1.211770219146
 Iteration  8        0.000334925372       -1.211765552234
 Iteration  9        0.000140332542       -1.211765051385
 Iteration 10        0.000066630791       -1.211767780055
 
 CCSD iteration has converged in 10 steps.
     2172.56 MB memory was utilized by CCSD
 
 T1 diagnostic:      1.788E-02            D1 diagnostic:      7.182E-02
 
 CCSD correlation energy [au]:          -0.071373784413
 
 CPU time [min]: 12378.902                   Wall time [min]:   193.186
 
 Calculation of (T) correction...
 
 Laplace threshold, nquadmin:  1.00E-03   4
 Number of quadrature points:    4
 
     1731.96 MB memory is utilized for (T)

 0%       25%       50%       75%       100%
 |---------|---------|---------|---------| 
 
 (T) correction [au]:                   -0.003517795157
 CCSD(T) correlation energy [au]:       -0.074891579570
 
 CPU time [min]: 12427.555                   Wall time [min]:   193.889
 
 MO:    57
 Number of atoms in domain:      18
 Number of atomic orbitals:     894
 Number of atoms for local DF:   18
 Number of fitting functions:  4623 (100.00%)
 Number of occupied orbitals:    55
 Number of virtual  orbitals:   792
 Number of Cholesky vectors:      7
 MP2 energy in ED [au]:          -0.070046559620
 Number of occupied LNOs:        32  (58.18%)
 Number of virtual  LNOs:       131  (16.54%)
 avg/min projected vLNO norm    1.0000E+00    1.0000E+00
 Number of Cholesky vectors:      6
 MP2 energy in LIS [au]:         -0.069790491571
 Correction for frozen LNO [au]: -0.000256068049     (0.366%)
 Number of NAFs:                501  (10.84%)
 CPU time [min]: 12544.783                   Wall time [min]:   195.781
 

 Direct DF-CCSD(T) calculation
 
 Convergence criterion:  1.0E-05
 
 Number of occupied/virtual/auxiliary orbitals:    32   131   501
    665.97 MB is the minimal memory requirement for (T)
    462.71 MB is the minimal memory requirement for CCSD
 
 MP2 correlation energy [au]:        -1.123162872833
 
 LMP2 domain correlation energy contribution [au]:       -0.069788721630
 
 CPU time [min]: 12545.130                   Wall time [min]:   195.786
 
 
 Starting CCSD iterations...
 
                     Residual norm       Correlation Energy
 Iteration  1        0.280736349887       -1.091137591317
 Iteration  2        0.126502252723       -1.126809628803
 Iteration  3        0.041663782842       -1.133241220510
 Iteration  4        0.011987373814       -1.133839837040
 Iteration  5        0.004250934244       -1.133544195091
 Iteration  6        0.001881119802       -1.133522016926
 Iteration  7        0.000805272247       -1.133537356087
 Iteration  8        0.000295715381       -1.133535857976
 Iteration  9        0.000129464513       -1.133536451792
 Iteration 10        0.000059997098       -1.133537964726
 
 CCSD iteration has converged in 10 steps.
     1560.72 MB memory was utilized by CCSD
 
 T1 diagnostic:      1.857E-02            D1 diagnostic:      6.513E-02
 
 CCSD correlation energy [au]:          -0.069512534174
 
 CPU time [min]: 12561.188                   Wall time [min]:   196.027
 
 Calculation of (T) correction...
 
 Laplace threshold, nquadmin:  1.00E-03   4
 Number of quadrature points:    4
 
     1232.27 MB memory is utilized for (T)

 0%       25%       50%       75%       100%
 |---------|---------|---------|---------| 
 
 (T) correction [au]:                   -0.002887975213
 CCSD(T) correlation energy [au]:       -0.072400509387
 
 CPU time [min]: 12591.309                   Wall time [min]:   196.462
 
 MO:    58
 Number of atoms in domain:      18
 Number of atomic orbitals:     894
 Number of atoms for local DF:   18
 Number of fitting functions:  4623 (100.00%)
 Number of occupied orbitals:    54
 Number of virtual  orbitals:   792
 Number of Cholesky vectors:      7
 MP2 energy in ED [au]:          -0.068815401105
 Number of occupied LNOs:        28  (51.85%)
 Number of virtual  LNOs:       122  (15.40%)
 avg/min projected vLNO norm    1.0000E+00    1.0000E+00
 Number of Cholesky vectors:      6
 MP2 energy in LIS [au]:         -0.068582540444
 Correction for frozen LNO [au]: -0.000232860662     (0.338%)
 Number of NAFs:                466  (10.08%)
 CPU time [min]: 12705.386                   Wall time [min]:   198.280
 

 Direct DF-CCSD(T) calculation
 
 Convergence criterion:  1.0E-05
 
 Number of occupied/virtual/auxiliary orbitals:    28   122   466
    526.71 MB is the minimal memory requirement for (T)
    365.53 MB is the minimal memory requirement for CCSD
 
 MP2 correlation energy [au]:        -0.986190784852
 
 LMP2 domain correlation energy contribution [au]:       -0.068581129437
 
 CPU time [min]: 12705.568                   Wall time [min]:   198.282
 
 
 Starting CCSD iterations...
 
                     Residual norm       Correlation Energy
 Iteration  1        0.263952218287       -0.968068432386
 Iteration  2        0.112701331295       -0.997681475135
 Iteration  3        0.037043411277       -1.003668243451
 Iteration  4        0.010283867129       -1.003891640077
 Iteration  5        0.003921108658       -1.003689176810
 Iteration  6        0.001730821517       -1.003698064940
 Iteration  7        0.000755838237       -1.003706035232
 Iteration  8        0.000262524434       -1.003700909821
 Iteration  9        0.000110614602       -1.003701038445
 Iteration 10        0.000050401143       -1.003702508164
 
 CCSD iteration has converged in 10 steps.
     1190.62 MB memory was utilized by CCSD
 
 T1 diagnostic:      1.780E-02            D1 diagnostic:      6.162E-02
 
 CCSD correlation energy [au]:          -0.068372645080
 
 CPU time [min]: 12715.676                   Wall time [min]:   198.430
 
 Calculation of (T) correction...
 
 Laplace threshold, nquadmin:  1.00E-03   4
 Number of quadrature points:    4
 
      910.33 MB memory is utilized for (T)

 0%       25%       50%       75%       100%
 |---------|---------|---------|---------| 
 
 (T) correction [au]:                   -0.002748028019
 CCSD(T) correlation energy [au]:       -0.071120673100
 
 CPU time [min]: 12737.303                   Wall time [min]:   198.738
 
 MO:    59
 Number of atoms in domain:      18
 Number of atomic orbitals:     894
 Number of atoms for local DF:   18
 Number of fitting functions:  4623 (100.00%)
 Number of occupied orbitals:    60
 Number of virtual  orbitals:   792
 Number of Cholesky vectors:      7
 MP2 energy in ED [au]:          -0.072684028684
 Number of occupied LNOs:        35  (58.33%)
 Number of virtual  LNOs:       144  (18.18%)
 avg/min projected vLNO norm    1.0000E+00    1.0000E+00
 Number of Cholesky vectors:      6
 MP2 energy in LIS [au]:         -0.072426391372
 Correction for frozen LNO [au]: -0.000257637312     (0.354%)
 Number of NAFs:                560  (12.11%)
 CPU time [min]: 12862.448                   Wall time [min]:   200.785
 

 Direct DF-CCSD(T) calculation
 
 Convergence criterion:  1.0E-05
 
 Number of occupied/virtual/auxiliary orbitals:    35   144   560
    877.35 MB is the minimal memory requirement for (T)
    601.43 MB is the minimal memory requirement for CCSD
 
 MP2 correlation energy [au]:        -1.247903796114
 
 LMP2 domain correlation energy contribution [au]:       -0.072423054829
 
 CPU time [min]: 12862.844                   Wall time [min]:   200.790
 
 
 Starting CCSD iterations...
 
                     Residual norm       Correlation Energy
 Iteration  1        0.297886628967       -1.211048952866
 Iteration  2        0.139409270341       -1.250586384770
 Iteration  3        0.045327335028       -1.258094237512
 Iteration  4        0.013308414911       -1.258769524530
 Iteration  5        0.005079914138       -1.258448181218
 Iteration  6        0.002252233746       -1.258440517219
 Iteration  7        0.000980381139       -1.258453736621
 Iteration  8        0.000375003962       -1.258449739412
 Iteration  9        0.000162362237       -1.258450090079
 Iteration 10        0.000076540268       -1.258453413659
 
 CCSD iteration has converged in 10 steps.
     2210.77 MB memory was utilized by CCSD
 
 T1 diagnostic:      1.860E-02            D1 diagnostic:      7.323E-02
 
 CCSD correlation energy [au]:          -0.071458850608
 
 CPU time [min]: 12885.790                   Wall time [min]:   201.132
 
 Calculation of (T) correction...
 
 Laplace threshold, nquadmin:  1.00E-03   4
 Number of quadrature points:    4
 
     1712.23 MB memory is utilized for (T)

 0%       25%       50%       75%       100%
 |---------|---------|---------|---------| 
 
 (T) correction [au]:                   -0.003544816206
 CCSD(T) correlation energy [au]:       -0.075003666815
 
 CPU time [min]: 12941.059                   Wall time [min]:   201.957
 
 MO:    60
 Number of atoms in domain:      18
 Number of atomic orbitals:     894
 Number of atoms for local DF:   18
 Number of fitting functions:  4623 (100.00%)
 Number of occupied orbitals:    55
 Number of virtual  orbitals:   792
 Number of Cholesky vectors:      7
 MP2 energy in ED [au]:          -0.070040890562
 Number of occupied LNOs:        32  (58.18%)
 Number of virtual  LNOs:       131  (16.54%)
 avg/min projected vLNO norm    1.0000E+00    1.0000E+00
 Number of Cholesky vectors:      6
 MP2 energy in LIS [au]:         -0.069785062868
 Correction for frozen LNO [au]: -0.000255827693     (0.365%)
 Number of NAFs:                501  (10.84%)
 CPU time [min]: 13058.196                   Wall time [min]:   203.847
 

 Direct DF-CCSD(T) calculation
 
 Convergence criterion:  1.0E-05
 
 Number of occupied/virtual/auxiliary orbitals:    32   131   501
    665.97 MB is the minimal memory requirement for (T)
    462.71 MB is the minimal memory requirement for CCSD
 
 MP2 correlation energy [au]:        -1.123964078845
 
 LMP2 domain correlation energy contribution [au]:       -0.069783285248
 
 CPU time [min]: 13058.555                   Wall time [min]:   203.852
 
 
 Starting CCSD iterations...
 
                     Residual norm       Correlation Energy
 Iteration  1        0.280835581036       -1.091790006547
 Iteration  2        0.126574953941       -1.127491543076
 Iteration  3        0.041667249203       -1.133927142539
 Iteration  4        0.011994804074       -1.134527337420
 Iteration  5        0.004251970458       -1.134230440265
 Iteration  6        0.001881122539       -1.134208250208
 Iteration  7        0.000804650556       -1.134223702638
 Iteration  8        0.000295613077       -1.134222125025
 Iteration  9        0.000129347455       -1.134222677494
 Iteration 10        0.000059920789       -1.134224193451
 
 CCSD iteration has converged in 10 steps.
     1560.72 MB memory was utilized by CCSD
 
 T1 diagnostic:      1.857E-02            D1 diagnostic:      6.508E-02
 
 CCSD correlation energy [au]:          -0.069508138370
 
 CPU time [min]: 13074.816                   Wall time [min]:   204.095
 
 Calculation of (T) correction...
 
 Laplace threshold, nquadmin:  1.00E-03   4
 Number of quadrature points:    4
 
     1232.27 MB memory is utilized for (T)

 0%       25%       50%       75%       100%
 |---------|---------|---------|---------| 
 
 (T) correction [au]:                   -0.002886748789
 CCSD(T) correlation energy [au]:       -0.072394887160
 
 CPU time [min]: 13105.255                   Wall time [min]:   204.533
 
 **********************************************************************
 Dimensions of the extended domains:    Minimum / Average / Maximum
 
 Number of atoms in domain:                  18      18.0        18
 Number of atomic orbitals:                 894     894.0       894
 Number of fitting functions:              4623    4623.0      4623
 Number of occupied localized MOs:           32      53.9        60
 Number of PAOs:                            792     792.0       792
 Number of occupied LNOs:                    21      34.1        55
 Number of virtual  LNOs:                   107     139.4       231
 Number of NAFs:                            399     540.5       943
 
 **********************************************************************
 Distant (and weak) pair contributions, corrections
 
 Sum of pair energies [au]:                    -0.000334687189    (0.008%)
 Sum of energy corrections [au]:               -0.014692974140    (0.345%)
 Pair energies + LNO corrections [au]:         -0.015027661329
 Sum of LMP2 contributions [au]:               -4.253930726558
 
 **********************************************************************
  Time of manipulations in the EDs:      max CPU/Wall [s]  all CPU/Wall [min]
 
 PD construction & multipole pair E    2260.50    32.19    37.68     0.54
 Construct MO basis of the ED            31.86     0.43    26.06     0.35
 (mu,nu|P) evaluation & trf 2 (ai|P)   2537.72    34.72  2338.52    31.82
 Evaluate MP2 energy of the ED          173.97     2.30   142.09     1.88
 Transformations to the LNO basis       109.25     1.46    71.00     0.95
 Build W_PQ (Jai or Jpi part)            21.16     0.67    14.34     0.20
 Evaluate MP2 energy of the LIS          11.30     0.15     3.45     0.05
 (mu,nu|P) evaluation & trf 2 J(abQ)   6436.94   128.44  4505.31    80.93
 Total of the above for all EDs        9322.21   168.16  7100.78   116.17
 
 **********************************************************************
 Maximum memory requirement [MB]:       
 
 PD construction & multipole pair E        134.3
 AO integral evaluation in the EDs       22239.4
 (mu,nu|P) evaluation & trf 2 (aI|P)     30938.8
 Evaluate MP2 energy in the EDs           4256.2
 Transformation to the LNO basis          2072.3
 (mu,nu|P) to Jab transformation         23696.9
 Evaluate MP2 energy in the LIS           2304.4
 Minimum requirement for LIS CCSD         2647.3
 Actually allocated  for LIS CCSD        13464.1
 Minimum requirement for LIS (T)          3906.6
 Actually allocated  for LIS (T)          9648.9
 
 ======================================================================
 ======================================================================
 
 
 
 ======================================================================
 ======================================================================
 
 Final local CC results:
 
 Minimum number of correlated electrons:        42       ( 35.0%)
 Maximum number of correlated electrons:       110       ( 91.7%)
 Average number of correlated electrons:        68.3     ( 56.9%)
 Minimum number of correlated orbitals:        128       ( 15.0%)
 Maximum number of correlated orbitals:        286       ( 33.6%)
 Average number of correlated orbitals:        173.5     ( 20.4%)
 
 CPU time for integral calculations [min]:                 28.906
 Wall time for integral calculations [min]:                16.139
 
 CPU time for SCF calculation [min]:                      820.293
 Wall time for SCF calculation [min]:                      10.890
 
 CPU time for orbital localization [min]:                   0.549
 Wall time for orbital localization [min]:                  0.020
 
 CPU time for integral transformations [min]:            7220.624
 Wall time for integral transformations [min]:            117.873
 
 Reference energy [au]:                                    -20745.603491189882
 
 LMP2 correlation energy [au]:                                 -4.253930726558
 Total LMP2 energy [au]:                                   -20749.857421916440
 
 Total MP2 correction for dropped NAFs [au]:                   -0.000091734428
 Total MP2 correction [au]:                                    -0.015119395757
 
 CPU time for CCSD calculations [min]:                   1819.450
 Total CPU time for CCSD [min]:                          9889.823
 Wall time for CCSD calculations [min]:                    27.864
 Total wall time for CCSD [min]:                          172.787
 
 CCSD correlation energy [au]:                                 -4.199071443398
 Total CCSD energy [au]:                                   -20749.802562633278
 CCSD correlation energy + 0.5 MP2 corrections [au]:           -4.206631141276
 Total LNO-CCSD energy with MP2 corrections [au]:          -20749.810122331157
 
 CPU time for (T) corrections [min]:                     4065.186
 Total CPU time for CCSD(T) [min]:                      13955.009
 Wall time for (T) corrections [min]:                      58.796
 Total wall time for CCSD(T) [min]:                       231.582
 
 Total (T) correlation energy contribution [au]:               -0.191553843209
 Total (T) correlation energy+0.5 MP2 correction [au]:         -0.199113541087
 CCSD(T) correlation energy [au]:                              -4.390625286606
 Total CCSD(T) energy [au]:                                -20749.994116476490
 CCSD(T) correlation energy + MP2 corrections [au]:            -4.405744682363
 Total LNO-CCSD(T) energy with MP2 corrections [au]:       -20750.009235872247
 
 ======================================================================
 ======================================================================
 
 ************************ 2022-02-05 00:45:47 *************************
                      Normal termination of mrcc.
 **********************************************************************
