
                                 *****************
                                 * O   R   C   A *
                                 *****************

                                            #,                                       
                                            ###                                      
                                            ####                                     
                                            #####                                    
                                            ######                                   
                                           ########,                                 
                                     ,,################,,,,,                         
                               ,,#################################,,                 
                          ,,##########################################,,             
                       ,#########################################, ''#####,          
                    ,#############################################,,   '####,        
                  ,##################################################,,,,####,       
                ,###########''''           ''''###############################       
              ,#####''   ,,,,##########,,,,          '''####'''          '####       
            ,##' ,,,,###########################,,,                        '##       
           ' ,,###''''                  '''############,,,                           
         ,,##''                                '''############,,,,        ,,,,,,###''
      ,#''                                            '''#######################'''  
     '                                                          ''''####''''         
             ,#######,   #######,   ,#######,      ##                                
            ,#'     '#,  ##    ##  ,#'     '#,    #''#        ######   ,####,        
            ##       ##  ##   ,#'  ##            #'  '#       #        #'  '#        
            ##       ##  #######   ##           ,######,      #####,   #    #        
            '#,     ,#'  ##    ##  '#,     ,#' ,#      #,         ##   #,  ,#        
             '#######'   ##     ##  '#######'  #'      '#     #####' # '####'        



                  #######################################################
                  #                        -***-                        #
                  #          Department of theory and spectroscopy      #
                  #    Directorship and core code : Frank Neese         #
                  #        Max Planck Institute fuer Kohlenforschung    #
                  #                Kaiser Wilhelm Platz 1               #
                  #                 D-45470 Muelheim/Ruhr               #
                  #                      Germany                        #
                  #                                                     #
                  #                  All rights reserved                #
                  #                        -***-                        #
                  #######################################################


                         Program Version 5.0.1 -  RELEASE  -


 With contributions from (in alphabetic order):
   Daniel Aravena         : Magnetic Suceptibility
   Michael Atanasov       : Ab Initio Ligand Field Theory (pilot matlab implementation)
   Alexander A. Auer      : GIAO ZORA, VPT2 properties, NMR spectrum
   Ute Becker             : Parallelization
   Giovanni Bistoni       : ED, misc. LED, open-shell LED, HFLD
   Martin Brehm           : Molecular dynamics
   Dmytro Bykov           : SCF Hessian
   Vijay G. Chilkuri      : MRCI spin determinant printing, contributions to CSF-ICE
   Dipayan Datta          : RHF DLPNO-CCSD density
   Achintya Kumar Dutta   : EOM-CC, STEOM-CC
   Dmitry Ganyushin       : Spin-Orbit,Spin-Spin,Magnetic field MRCI
   Miquel Garcia          : C-PCM and meta-GGA Hessian, CC/C-PCM, Gaussian charge scheme
   Yang Guo               : DLPNO-NEVPT2, F12-NEVPT2, CIM, IAO-localization
   Andreas Hansen         : Spin unrestricted coupled pair/coupled cluster methods
   Benjamin Helmich-Paris : MC-RPA, TRAH-SCF, COSX integrals
   Lee Huntington         : MR-EOM, pCC
   Robert Izsak           : Overlap fitted RIJCOSX, COSX-SCS-MP3, EOM
   Marcus Kettner         : VPT2
   Christian Kollmar      : KDIIS, OOCD, Brueckner-CCSD(T), CCSD density, CASPT2, CASPT2-K
   Simone Kossmann        : Meta GGA functionals, TD-DFT gradient, OOMP2, MP2 Hessian
   Martin Krupicka        : Initial AUTO-CI
   Lucas Lang             : DCDCAS
   Marvin Lechner         : AUTO-CI (C++ implementation), FIC-MRCC
   Dagmar Lenk            : GEPOL surface, SMD
   Dimitrios Liakos       : Extrapolation schemes; Compound Job, initial MDCI parallelization
   Dimitrios Manganas     : Further ROCIS development; embedding schemes
   Dimitrios Pantazis     : SARC Basis sets
   Anastasios Papadopoulos: AUTO-CI, single reference methods and gradients
   Taras Petrenko         : DFT Hessian,TD-DFT gradient, ASA, ECA, R-Raman, ABS, FL, XAS/XES, NRVS
   Peter Pinski           : DLPNO-MP2, DLPNO-MP2 Gradient
   Christoph Reimann      : Effective Core Potentials
   Marius Retegan         : Local ZFS, SOC
   Christoph Riplinger    : Optimizer, TS searches, QM/MM, DLPNO-CCSD(T), (RO)-DLPNO pert. Triples
   Tobias Risthaus        : Range-separated hybrids, TD-DFT gradient, RPA, STAB
   Michael Roemelt        : Original ROCIS implementation
   Masaaki Saitow         : Open-shell DLPNO-CCSD energy and density
   Barbara Sandhoefer     : DKH picture change effects
   Avijit Sen             : IP-ROCIS
   Kantharuban Sivalingam : CASSCF convergence, NEVPT2, FIC-MRCI
   Bernardo de Souza      : ESD, SOC TD-DFT
   Georgi Stoychev        : AutoAux, RI-MP2 NMR, DLPNO-MP2 response
   Willem Van den Heuvel  : Paramagnetic NMR
   Boris Wezisla          : Elementary symmetry handling
   Frank Wennmohs         : Technical directorship


 We gratefully acknowledge several colleagues who have allowed us to
 interface, adapt or use parts of their codes:
   Stefan Grimme, W. Hujo, H. Kruse, P. Pracht,  : VdW corrections, initial TS optimization,
                  C. Bannwarth, S. Ehlert          DFT functionals, gCP, sTDA/sTD-DF
   Ed Valeev, F. Pavosevic, A. Kumar             : LibInt (2-el integral package), F12 methods
   Garnet Chan, S. Sharma, J. Yang, R. Olivares  : DMRG
   Ulf Ekstrom                                   : XCFun DFT Library
   Mihaly Kallay                                 : mrcc  (arbitrary order and MRCC methods)
   Jiri Pittner, Ondrej Demel                    : Mk-CCSD
   Frank Weinhold                                : gennbo (NPA and NBO analysis)
   Christopher J. Cramer and Donald G. Truhlar   : smd solvation model
   Lars Goerigk                                  : TD-DFT with DH, B97 family of functionals
   V. Asgeirsson, H. Jonsson                     : NEB implementation
   FAccTs GmbH                                   : IRC, NEB, NEB-TS, DLPNO-Multilevel, CI-OPT
                                                   MM, QMMM, 2- and 3-layer-ONIOM, Crystal-QMMM,
                                                   LR-CPCM, SF, NACMEs, symmetry and pop. for TD-DFT,
                                                   nearIR, NL-DFT gradient (VV10), updates on ESD,
                                                   ML-optimized integration grids
   S Lehtola, MJT Oliveira, MAL Marques          : LibXC Library
   Liviu Ungur et al                             : ANISO software


 Your calculation uses the libint2 library for the computation of 2-el integrals
 For citations please refer to: http://libint.valeyev.net

 Your ORCA version has been built with support for libXC version: 5.1.0
 For citations please refer to: https://tddft.org/programs/libxc/

 This ORCA versions uses:
   CBLAS   interface :  Fast vector & matrix operations
   LAPACKE interface :  Fast linear algebra routines
   SCALAPACK package :  Parallel linear algebra routines
   Shared memory     :  Shared parallel matrices
   BLAS/LAPACK       :  OpenBLAS 0.3.15  USE64BITINT DYNAMIC_ARCH NO_AFFINITY SkylakeX SINGLE_THREADED
        Core in use  :  SkylakeX
   Copyright (c) 2011-2014, The OpenBLAS Project


SCAN-COORDS
================================================================================

----- Orbital basis set information -----
Your calculation utilizes the basis: def2-SVP
   F. Weigend and R. Ahlrichs, Phys. Chem. Chem. Phys. 7, 3297 (2005).

----- AuxJ basis set information -----
Your calculation utilizes the auxiliary basis: def2/J
   F. Weigend, Phys. Chem. Chem. Phys. 8, 1057 (2006).

================================================================================
                                        WARNINGS
                       Please study these warnings very carefully!
================================================================================

WARNING: Old DensityContainer found on disk!
         Will remove this file - 
         If you want to keep old densities, please start your calculation with a different basename. 

WARNING: The globally-selected AuxJ basis set is optimized for use with ECPs
         Make sure a suitable alternative is explicitly given all heavy elements (Z>36)

INFO   : the flag for use of the SHARK integral package has been found!

================================================================================
                                       INPUT FILE
================================================================================
NAME = orca.inp
|  1> ! NormalSCF SlowConv DIIS
|  2> %maxcore 18000
|  3> %pal
|  4>   nprocs 16
|  5> end
|  6> %pointcharges "orca.bq"
|  7> %method
|  8>   Method DFT
|  9>   Functional PBE
| 10>   RI on
| 11>   RunTyp Energy
| 12> end
| 13> %basis
| 14>   Basis "def2-SVP"
| 15>   Aux "def2/J"
| 16> end
| 17> %scf
| 18>   HFTyp rks
| 19>   Guess MORead
| 20> GuessMode FMatrix
| 21> MOInp "sto.gbw"
| 22>   AutoStart True
| 23>   SCFMode Direct
| 24>   MaxIter 1000
| 25>   sthresh 1e-6
| 26> AutoTRAHIter 120
| 27> end
| 28> %coords
| 29>   CTyp xyz
| 30>   Mult 1
| 31>   Units angs
| 32>   Charge 0
| 33>   coords
| 34> O                       0.00000000000    0.00000000000    0.00000000000
| 35> Ti                      0.00000000000    1.48054676798   -1.27209143018
| 36> Ti                      0.00000000000   -1.48054676798   -1.27209143018
| 37> Ti                      0.00000000000    0.00000000000    1.98192821856
| 38> O                      -0.00000000000    0.00000000000   -2.54418286035
| 39> O                      -1.27209143018    1.48054676798    1.98192821856
| 40> O                       1.27209143018    1.48054676798    1.98192821856
| 41> O                       1.27209143018   -1.48054676798    1.98192821856
| 42> O                      -1.27209143018   -1.48054676798    1.98192821856
| 43> O                      -1.98192821856    1.48054676798   -1.27209143018
| 44> O                       1.98192821856    1.48054676798   -1.27209143018
| 45> O                       1.98192821856   -1.48054676798   -1.27209143018
| 46> O                      -1.98192821856   -1.48054676798   -1.27209143018
| 47> O                       0.00000000000    2.96109353596    0.00000000000
| 48> O                       0.00000000000   -2.96109353596    0.00000000000
| 49> O                      -3.25401964873    0.00000000000    0.70983678838
| 50> O                       3.25401964873    0.00000000000    0.70983678838
| 51> Ti                     -3.25401964873    0.00000000000   -1.27209143018
| 52> Ti                      3.25401964873    0.00000000000   -1.27209143018
| 53> Ti                      0.00000000000    2.96109353596    1.98192821856
| 54> Ti                      0.00000000000   -2.96109353596    1.98192821856
| 55> O                      -0.00000000000    2.96109353596   -2.54418286035
| 56> O                      -0.00000000000   -2.96109353596   -2.54418286035
| 57> O                      -0.00000000000    0.00000000000    3.96385643712
| 58> Ti                     -3.25401964873    1.48054676798    1.98192821856
| 59> Ti                      3.25401964873    1.48054676798    1.98192821856
| 60> Ti                      3.25401964873   -1.48054676798    1.98192821856
| 61> Ti                     -3.25401964873   -1.48054676798    1.98192821856
| 62> O                      -3.25401964873    2.96109353596    0.70983678838
| 63> O                       3.25401964873    2.96109353596    0.70983678838
| 64> O                       3.25401964873   -2.96109353596    0.70983678838
| 65> O                      -3.25401964873   -2.96109353596    0.70983678838
| 66> Ti                      0.00000000000    0.00000000000   -4.52611107891
| 67> Ti                     -3.25401964873    2.96109353596   -1.27209143018
| 68> Ti                      3.25401964873    2.96109353596   -1.27209143018
| 69> Ti                      3.25401964873   -2.96109353596   -1.27209143018
| 70> Ti                     -3.25401964873   -2.96109353596   -1.27209143018
| 71> O                      -3.25401964873    0.00000000000    3.25401964873
| 72> O                       3.25401964873    0.00000000000    3.25401964873
| 73> O                      -3.25401964873    0.00000000000   -3.25401964873
| 74> O                       3.25401964873    0.00000000000   -3.25401964873
| 75> Ti                      0.00000000000    4.44164030394   -1.27209143018
| 76> Ti                      0.00000000000   -4.44164030394   -1.27209143018
| 77> O                      -4.52611107891    1.48054676798   -1.27209143018
| 78> O                       4.52611107891    1.48054676798   -1.27209143018
| 79> O                       4.52611107891   -1.48054676798   -1.27209143018
| 80> O                      -4.52611107891   -1.48054676798   -1.27209143018
| 81> O                      -1.27209143018    1.48054676798   -4.52611107891
| 82> O                       1.27209143018    1.48054676798   -4.52611107891
| 83> O                       1.27209143018   -1.48054676798   -4.52611107891
| 84> O                      -1.27209143018   -1.48054676798   -4.52611107891
| 85> O                      -0.00000000000    2.96109353596    3.96385643712
| 86> O                      -0.00000000000   -2.96109353596    3.96385643712
| 87> O                      -1.27209143018    4.44164030394    1.98192821856
| 88> O                       1.27209143018    4.44164030394    1.98192821856
| 89> O                       1.27209143018   -4.44164030394    1.98192821856
| 90> O                      -1.27209143018   -4.44164030394    1.98192821856
| 91> O                      -1.98192821856    4.44164030394   -1.27209143018
| 92> O                       1.98192821856    4.44164030394   -1.27209143018
| 93> O                       1.98192821856   -4.44164030394   -1.27209143018
| 94> O                      -1.98192821856   -4.44164030394   -1.27209143018
| 95> Ti                      0.00000000000    2.96109353596   -4.52611107891
| 96> Ti                      0.00000000000   -2.96109353596   -4.52611107891
| 97> Ti                      0.00000000000    1.48054676798    5.23594786729
| 98> Ti                      0.00000000000   -1.48054676798    5.23594786729
| 99> O                      -3.25401964873    2.96109353596    3.25401964873
|100> O                       3.25401964873    2.96109353596    3.25401964873
|101> O                       3.25401964873   -2.96109353596    3.25401964873
|102> O                      -3.25401964873   -2.96109353596    3.25401964873
|103> O                      -3.25401964873    2.96109353596   -3.25401964873
|104> O                       3.25401964873    2.96109353596   -3.25401964873
|105> O                       3.25401964873   -2.96109353596   -3.25401964873
|106> O                      -3.25401964873   -2.96109353596   -3.25401964873
|107> Ti                     -3.25401964873    1.48054676798   -4.52611107891
|108> Ti                      3.25401964873    1.48054676798   -4.52611107891
|109> Ti                      3.25401964873   -1.48054676798   -4.52611107891
|110> Ti                     -3.25401964873   -1.48054676798   -4.52611107891
|111> O                      -1.98192821856    1.48054676798    5.23594786729
|112> O                       1.98192821856    1.48054676798    5.23594786729
|113> O                       1.98192821856   -1.48054676798    5.23594786729
|114> O                      -1.98192821856   -1.48054676798    5.23594786729
|115> O                      -5.23594786729    1.48054676798    1.98192821856
|116> O                       5.23594786729    1.48054676798    1.98192821856
|117> O                       5.23594786729   -1.48054676798    1.98192821856
|118> O                      -5.23594786729   -1.48054676798    1.98192821856
|119> Ti                     -3.25401964873    4.44164030394    1.98192821856
|120> Ti                      3.25401964873    4.44164030394    1.98192821856
|121> Ti                      3.25401964873   -4.44164030394    1.98192821856
|122> Ti                     -3.25401964873   -4.44164030394    1.98192821856
|123> O                       0.00000000000    5.92218707193    0.00000000000
|124> O                       0.00000000000   -5.92218707193    0.00000000000
|125> Ti                     -3.25401964873    0.00000000000    5.23594786729
|126> Ti                      3.25401964873    0.00000000000    5.23594786729
|127> Ti                      0.00000000000    5.92218707193    1.98192821856
|128> Ti                      0.00000000000   -5.92218707193    1.98192821856
|129> O                      -0.00000000000    5.92218707193   -2.54418286035
|130> O                      -0.00000000000   -5.92218707193   -2.54418286035
|131> O                      -4.52611107891    4.44164030394   -1.27209143018
|132> O                       4.52611107891    4.44164030394   -1.27209143018
|133> O                       4.52611107891   -4.44164030394   -1.27209143018
|134> O                      -4.52611107891   -4.44164030394   -1.27209143018
|135> O                      -1.27209143018    4.44164030394   -4.52611107891
|136> O                       1.27209143018    4.44164030394   -4.52611107891
|137> O                       1.27209143018   -4.44164030394   -4.52611107891
|138> O                      -1.27209143018   -4.44164030394   -4.52611107891
|139> O                       0.00000000000    0.00000000000    6.50803929747
|140> O                      -6.50803929747    0.00000000000    0.00000000000
|141> O                       6.50803929747    0.00000000000    0.00000000000
|142> O                       0.00000000000    0.00000000000   -6.50803929747
|143> O                      -3.25401964873    0.00000000000   -5.79820250908
|144> O                       3.25401964873    0.00000000000   -5.79820250908
|145> O                      -3.25401964873    5.92218707193    0.70983678838
|146> O                       3.25401964873    5.92218707193    0.70983678838
|147> O                       3.25401964873   -5.92218707193    0.70983678838
|148> O                      -3.25401964873   -5.92218707193    0.70983678838
|149> Ti                     -6.50803929747    1.48054676798   -1.27209143018
|150> Ti                      6.50803929747    1.48054676798   -1.27209143018
|151> Ti                      6.50803929747   -1.48054676798   -1.27209143018
|152> Ti                     -6.50803929747   -1.48054676798   -1.27209143018
|153> Ti                     -6.50803929747    0.00000000000    1.98192821856
|154> Ti                      6.50803929747    0.00000000000    1.98192821856
|155> Ti                     -3.25401964873    2.96109353596    5.23594786729
|156> Ti                      3.25401964873    2.96109353596    5.23594786729
|157> Ti                      3.25401964873   -2.96109353596    5.23594786729
|158> Ti                     -3.25401964873   -2.96109353596    5.23594786729
|159> Ti                      0.00000000000    4.44164030394    5.23594786729
|160> Ti                      0.00000000000   -4.44164030394    5.23594786729
|161> Ti                     -3.25401964873    5.92218707193   -1.27209143018
|162> Ti                      3.25401964873    5.92218707193   -1.27209143018
|163> Ti                      3.25401964873   -5.92218707193   -1.27209143018
|164> Ti                     -3.25401964873   -5.92218707193   -1.27209143018
|165> O                      -6.50803929747    0.00000000000   -2.54418286035
|166> O                       6.50803929747    0.00000000000   -2.54418286035
|167> O                      -4.52611107891    1.48054676798    5.23594786729
|168> O                       4.52611107891    1.48054676798    5.23594786729
|169> O                       4.52611107891   -1.48054676798    5.23594786729
|170> O                      -4.52611107891   -1.48054676798    5.23594786729
|171> O                      -5.23594786729    1.48054676798   -4.52611107891
|172> O                       5.23594786729    1.48054676798   -4.52611107891
|173> O                       5.23594786729   -1.48054676798   -4.52611107891
|174> O                      -5.23594786729   -1.48054676798   -4.52611107891
|175> O                      -0.00000000000    5.92218707193    3.96385643712
|176> O                      -0.00000000000   -5.92218707193    3.96385643712
|177> Ti                     -3.25401964873    4.44164030394   -4.52611107891
|178> Ti                      3.25401964873    4.44164030394   -4.52611107891
|179> Ti                      3.25401964873   -4.44164030394   -4.52611107891
|180> Ti                     -3.25401964873   -4.44164030394   -4.52611107891
|181> O                      -1.98192821856    4.44164030394    5.23594786729
|182> O                       1.98192821856    4.44164030394    5.23594786729
|183> O                       1.98192821856   -4.44164030394    5.23594786729
|184> O                      -1.98192821856   -4.44164030394    5.23594786729
|185> O                      -5.23594786729    4.44164030394    1.98192821856
|186> O                       5.23594786729    4.44164030394    1.98192821856
|187> O                       5.23594786729   -4.44164030394    1.98192821856
|188> O                      -5.23594786729   -4.44164030394    1.98192821856
|189> O                       0.00000000000    2.96109353596    6.50803929747
|190> O                       0.00000000000   -2.96109353596    6.50803929747
|191> O                      -6.50803929747    2.96109353596    0.00000000000
|192> O                       6.50803929747    2.96109353596    0.00000000000
|193> O                       6.50803929747   -2.96109353596    0.00000000000
|194> O                      -6.50803929747   -2.96109353596    0.00000000000
|195> O                       0.00000000000    2.96109353596   -6.50803929747
|196> O                       0.00000000000   -2.96109353596   -6.50803929747
|197> O                      -3.25401964873    2.96109353596   -5.79820250908
|198> O                       3.25401964873    2.96109353596   -5.79820250908
|199> O                       3.25401964873   -2.96109353596   -5.79820250908
|200> O                      -3.25401964873   -2.96109353596   -5.79820250908
|201> Ti                     -6.50803929747    2.96109353596    1.98192821856
|202> Ti                      6.50803929747    2.96109353596    1.98192821856
|203> Ti                      6.50803929747   -2.96109353596    1.98192821856
|204> Ti                     -6.50803929747   -2.96109353596    1.98192821856
|205> Ti                      0.00000000000    5.92218707193   -4.52611107891
|206> Ti                      0.00000000000   -5.92218707193   -4.52611107891
|207> O                      -3.25401964873    5.92218707193    3.25401964873
|208> O                       3.25401964873    5.92218707193    3.25401964873
|209> O                       3.25401964873   -5.92218707193    3.25401964873
|210> O                      -3.25401964873   -5.92218707193    3.25401964873
|211> O                      -3.25401964873    5.92218707193   -3.25401964873
|212> O                       3.25401964873    5.92218707193   -3.25401964873
|213> O                       3.25401964873   -5.92218707193   -3.25401964873
|214> O                      -3.25401964873   -5.92218707193   -3.25401964873
|215> Ti                      0.00000000000    7.40273383991   -1.27209143018
|216> Ti                      0.00000000000   -7.40273383991   -1.27209143018
|217> O                      -6.50803929747    2.96109353596   -2.54418286035
|218> O                       6.50803929747    2.96109353596   -2.54418286035
|219> O                       6.50803929747   -2.96109353596   -2.54418286035
|220> O                      -6.50803929747   -2.96109353596   -2.54418286035
|221> O                      -6.50803929747    0.00000000000    3.96385643712
|222> O                       6.50803929747    0.00000000000    3.96385643712
|223> O                      -1.27209143018    7.40273383991    1.98192821856
|224> O                       1.27209143018    7.40273383991    1.98192821856
|225> O                       1.27209143018   -7.40273383991    1.98192821856
|226> O                      -1.27209143018   -7.40273383991    1.98192821856
|227> O                      -1.98192821856    7.40273383991   -1.27209143018
|228> O                       1.98192821856    7.40273383991   -1.27209143018
|229> O                       1.98192821856   -7.40273383991   -1.27209143018
|230> O                      -1.98192821856   -7.40273383991   -1.27209143018
|231> Ti                      0.00000000000    1.48054676798   -7.78013072764
|232> Ti                      0.00000000000   -1.48054676798   -7.78013072764
|233> Ti                     -6.50803929747    0.00000000000   -4.52611107891
|234> Ti                      6.50803929747    0.00000000000   -4.52611107891
|235> Ti                     -6.50803929747    4.44164030394   -1.27209143018
|236> Ti                      6.50803929747    4.44164030394   -1.27209143018
|237> Ti                      6.50803929747   -4.44164030394   -1.27209143018
|238> Ti                     -6.50803929747   -4.44164030394   -1.27209143018
|239> O                      -7.78013072764    1.48054676798    1.98192821856
|240> O                       7.78013072764    1.48054676798    1.98192821856
|241> O                       7.78013072764   -1.48054676798    1.98192821856
|242> O                      -7.78013072764   -1.48054676798    1.98192821856
|243> O                      -1.98192821856    1.48054676798   -7.78013072764
|244> O                       1.98192821856    1.48054676798   -7.78013072764
|245> O                       1.98192821856   -1.48054676798   -7.78013072764
|246> O                      -1.98192821856   -1.48054676798   -7.78013072764
|247> O                      -6.50803929747    2.96109353596    3.96385643712
|248> O                       6.50803929747    2.96109353596    3.96385643712
|249> O                       6.50803929747   -2.96109353596    3.96385643712
|250> O                      -6.50803929747   -2.96109353596    3.96385643712
|251> O                      -4.52611107891    4.44164030394    5.23594786729
|252> O                       4.52611107891    4.44164030394    5.23594786729
|253> O                       4.52611107891   -4.44164030394    5.23594786729
|254> O                      -4.52611107891   -4.44164030394    5.23594786729
|255> Ti                     -3.25401964873    7.40273383991    1.98192821856
|256> Ti                      3.25401964873    7.40273383991    1.98192821856
|257> Ti                      3.25401964873   -7.40273383991    1.98192821856
|258> Ti                     -3.25401964873   -7.40273383991    1.98192821856
|259> Ti                     -3.25401964873    0.00000000000   -7.78013072764
|260> Ti                      3.25401964873    0.00000000000   -7.78013072764
|261> O                      -0.00000000000    0.00000000000   -9.05222215782
|262> Ti>    4.00000000000   -6.50803929747    2.96109353596   -4.52611107891
|263> NewECP
|264> N_core 0
|265>   lmax f
|266>   s 2
|267>    1      0.860000       9.191690  2
|268>    2      0.172000       0.008301  2
|269>   p 2
|270>    1      0.860000      17.997720  2
|271>    2      0.172000      -0.032600  2
|272>   d 2
|273>    1      1.600000      -9.504310  2
|274>    2      0.320000      -0.151370  2
|275>   f 1
|276>    1      1.000000000    0.000000000 2
|277> end
|278> Ti>    4.00000000000    6.50803929747    2.96109353596   -4.52611107891
|279> NewECP
|280> N_core 0
|281>   lmax f
|282>   s 2
|283>    1      0.860000       9.191690  2
|284>    2      0.172000       0.008301  2
|285>   p 2
|286>    1      0.860000      17.997720  2
|287>    2      0.172000      -0.032600  2
|288>   d 2
|289>    1      1.600000      -9.504310  2
|290>    2      0.320000      -0.151370  2
|291>   f 1
|292>    1      1.000000000    0.000000000 2
|293> end
|294> Ti>    4.00000000000    6.50803929747   -2.96109353596   -4.52611107891
|295> NewECP
|296> N_core 0
|297>   lmax f
|298>   s 2
|299>    1      0.860000       9.191690  2
|300>    2      0.172000       0.008301  2
|301>   p 2
|302>    1      0.860000      17.997720  2
|303>    2      0.172000      -0.032600  2
|304>   d 2
|305>    1      1.600000      -9.504310  2
|306>    2      0.320000      -0.151370  2
|307>   f 1
|308>    1      1.000000000    0.000000000 2
|309> end
|310> Ti>    4.00000000000   -6.50803929747   -2.96109353596   -4.52611107891
|311> NewECP
|312> N_core 0
|313>   lmax f
|314>   s 2
|315>    1      0.860000       9.191690  2
|316>    2      0.172000       0.008301  2
|317>   p 2
|318>    1      0.860000      17.997720  2
|319>    2      0.172000      -0.032600  2
|320>   d 2
|321>    1      1.600000      -9.504310  2
|322>    2      0.320000      -0.151370  2
|323>   f 1
|324>    1      1.000000000    0.000000000 2
|325> end
|326> Ti>    4.00000000000   -6.50803929747    1.48054676798    5.23594786729
|327> NewECP
|328> N_core 0
|329>   lmax f
|330>   s 2
|331>    1      0.860000       9.191690  2
|332>    2      0.172000       0.008301  2
|333>   p 2
|334>    1      0.860000      17.997720  2
|335>    2      0.172000      -0.032600  2
|336>   d 2
|337>    1      1.600000      -9.504310  2
|338>    2      0.320000      -0.151370  2
|339>   f 1
|340>    1      1.000000000    0.000000000 2
|341> end
|342> Ti>    4.00000000000    6.50803929747    1.48054676798    5.23594786729
|343> NewECP
|344> N_core 0
|345>   lmax f
|346>   s 2
|347>    1      0.860000       9.191690  2
|348>    2      0.172000       0.008301  2
|349>   p 2
|350>    1      0.860000      17.997720  2
|351>    2      0.172000      -0.032600  2
|352>   d 2
|353>    1      1.600000      -9.504310  2
|354>    2      0.320000      -0.151370  2
|355>   f 1
|356>    1      1.000000000    0.000000000 2
|357> end
|358> Ti>    4.00000000000    6.50803929747   -1.48054676798    5.23594786729
|359> NewECP
|360> N_core 0
|361>   lmax f
|362>   s 2
|363>    1      0.860000       9.191690  2
|364>    2      0.172000       0.008301  2
|365>   p 2
|366>    1      0.860000      17.997720  2
|367>    2      0.172000      -0.032600  2
|368>   d 2
|369>    1      1.600000      -9.504310  2
|370>    2      0.320000      -0.151370  2
|371>   f 1
|372>    1      1.000000000    0.000000000 2
|373> end
|374> Ti>    4.00000000000   -6.50803929747   -1.48054676798    5.23594786729
|375> NewECP
|376> N_core 0
|377>   lmax f
|378>   s 2
|379>    1      0.860000       9.191690  2
|380>    2      0.172000       0.008301  2
|381>   p 2
|382>    1      0.860000      17.997720  2
|383>    2      0.172000      -0.032600  2
|384>   d 2
|385>    1      1.600000      -9.504310  2
|386>    2      0.320000      -0.151370  2
|387>   f 1
|388>    1      1.000000000    0.000000000 2
|389> end
|390> Ti>    4.00000000000    0.00000000000    0.00000000000    8.48996751602
|391> NewECP
|392> N_core 0
|393>   lmax f
|394>   s 2
|395>    1      0.860000       9.191690  2
|396>    2      0.172000       0.008301  2
|397>   p 2
|398>    1      0.860000      17.997720  2
|399>    2      0.172000      -0.032600  2
|400>   d 2
|401>    1      1.600000      -9.504310  2
|402>    2      0.320000      -0.151370  2
|403>   f 1
|404>    1      1.000000000    0.000000000 2
|405> end
|406> Ti>    4.00000000000   -3.25401964873    5.92218707193    5.23594786729
|407> NewECP
|408> N_core 0
|409>   lmax f
|410>   s 2
|411>    1      0.860000       9.191690  2
|412>    2      0.172000       0.008301  2
|413>   p 2
|414>    1      0.860000      17.997720  2
|415>    2      0.172000      -0.032600  2
|416>   d 2
|417>    1      1.600000      -9.504310  2
|418>    2      0.320000      -0.151370  2
|419>   f 1
|420>    1      1.000000000    0.000000000 2
|421> end
|422> Ti>    4.00000000000    3.25401964873    5.92218707193    5.23594786729
|423> NewECP
|424> N_core 0
|425>   lmax f
|426>   s 2
|427>    1      0.860000       9.191690  2
|428>    2      0.172000       0.008301  2
|429>   p 2
|430>    1      0.860000      17.997720  2
|431>    2      0.172000      -0.032600  2
|432>   d 2
|433>    1      1.600000      -9.504310  2
|434>    2      0.320000      -0.151370  2
|435>   f 1
|436>    1      1.000000000    0.000000000 2
|437> end
|438> Ti>    4.00000000000    3.25401964873   -5.92218707193    5.23594786729
|439> NewECP
|440> N_core 0
|441>   lmax f
|442>   s 2
|443>    1      0.860000       9.191690  2
|444>    2      0.172000       0.008301  2
|445>   p 2
|446>    1      0.860000      17.997720  2
|447>    2      0.172000      -0.032600  2
|448>   d 2
|449>    1      1.600000      -9.504310  2
|450>    2      0.320000      -0.151370  2
|451>   f 1
|452>    1      1.000000000    0.000000000 2
|453> end
|454> Ti>    4.00000000000   -3.25401964873   -5.92218707193    5.23594786729
|455> NewECP
|456> N_core 0
|457>   lmax f
|458>   s 2
|459>    1      0.860000       9.191690  2
|460>    2      0.172000       0.008301  2
|461>   p 2
|462>    1      0.860000      17.997720  2
|463>    2      0.172000      -0.032600  2
|464>   d 2
|465>    1      1.600000      -9.504310  2
|466>    2      0.320000      -0.151370  2
|467>   f 1
|468>    1      1.000000000    0.000000000 2
|469> end
|470> Ti>    4.00000000000   -3.25401964873    2.96109353596   -7.78013072764
|471> NewECP
|472> N_core 0
|473>   lmax f
|474>   s 2
|475>    1      0.860000       9.191690  2
|476>    2      0.172000       0.008301  2
|477>   p 2
|478>    1      0.860000      17.997720  2
|479>    2      0.172000      -0.032600  2
|480>   d 2
|481>    1      1.600000      -9.504310  2
|482>    2      0.320000      -0.151370  2
|483>   f 1
|484>    1      1.000000000    0.000000000 2
|485> end
|486> Ti>    4.00000000000    3.25401964873    2.96109353596   -7.78013072764
|487> NewECP
|488> N_core 0
|489>   lmax f
|490>   s 2
|491>    1      0.860000       9.191690  2
|492>    2      0.172000       0.008301  2
|493>   p 2
|494>    1      0.860000      17.997720  2
|495>    2      0.172000      -0.032600  2
|496>   d 2
|497>    1      1.600000      -9.504310  2
|498>    2      0.320000      -0.151370  2
|499>   f 1
|500>    1      1.000000000    0.000000000 2
|501> end
|502> Ti>    4.00000000000    3.25401964873   -2.96109353596   -7.78013072764
|503> NewECP
|504> N_core 0
|505>   lmax f
|506>   s 2
|507>    1      0.860000       9.191690  2
|508>    2      0.172000       0.008301  2
|509>   p 2
|510>    1      0.860000      17.997720  2
|511>    2      0.172000      -0.032600  2
|512>   d 2
|513>    1      1.600000      -9.504310  2
|514>    2      0.320000      -0.151370  2
|515>   f 1
|516>    1      1.000000000    0.000000000 2
|517> end
|518> Ti>    4.00000000000   -3.25401964873   -2.96109353596   -7.78013072764
|519> NewECP
|520> N_core 0
|521>   lmax f
|522>   s 2
|523>    1      0.860000       9.191690  2
|524>    2      0.172000       0.008301  2
|525>   p 2
|526>    1      0.860000      17.997720  2
|527>    2      0.172000      -0.032600  2
|528>   d 2
|529>    1      1.600000      -9.504310  2
|530>    2      0.320000      -0.151370  2
|531>   f 1
|532>    1      1.000000000    0.000000000 2
|533> end
|534> Ti>    4.00000000000    0.00000000000    4.44164030394   -7.78013072764
|535> NewECP
|536> N_core 0
|537>   lmax f
|538>   s 2
|539>    1      0.860000       9.191690  2
|540>    2      0.172000       0.008301  2
|541>   p 2
|542>    1      0.860000      17.997720  2
|543>    2      0.172000      -0.032600  2
|544>   d 2
|545>    1      1.600000      -9.504310  2
|546>    2      0.320000      -0.151370  2
|547>   f 1
|548>    1      1.000000000    0.000000000 2
|549> end
|550> Ti>    4.00000000000    0.00000000000   -4.44164030394   -7.78013072764
|551> NewECP
|552> N_core 0
|553>   lmax f
|554>   s 2
|555>    1      0.860000       9.191690  2
|556>    2      0.172000       0.008301  2
|557>   p 2
|558>    1      0.860000      17.997720  2
|559>    2      0.172000      -0.032600  2
|560>   d 2
|561>    1      1.600000      -9.504310  2
|562>    2      0.320000      -0.151370  2
|563>   f 1
|564>    1      1.000000000    0.000000000 2
|565> end
|566> Ti>    4.00000000000    0.00000000000    2.96109353596    8.48996751602
|567> NewECP
|568> N_core 0
|569>   lmax f
|570>   s 2
|571>    1      0.860000       9.191690  2
|572>    2      0.172000       0.008301  2
|573>   p 2
|574>    1      0.860000      17.997720  2
|575>    2      0.172000      -0.032600  2
|576>   d 2
|577>    1      1.600000      -9.504310  2
|578>    2      0.320000      -0.151370  2
|579>   f 1
|580>    1      1.000000000    0.000000000 2
|581> end
|582> Ti>    4.00000000000    0.00000000000   -2.96109353596    8.48996751602
|583> NewECP
|584> N_core 0
|585>   lmax f
|586>   s 2
|587>    1      0.860000       9.191690  2
|588>    2      0.172000       0.008301  2
|589>   p 2
|590>    1      0.860000      17.997720  2
|591>    2      0.172000      -0.032600  2
|592>   d 2
|593>    1      1.600000      -9.504310  2
|594>    2      0.320000      -0.151370  2
|595>   f 1
|596>    1      1.000000000    0.000000000 2
|597> end
|598> Ti>    4.00000000000   -6.50803929747    5.92218707193    1.98192821856
|599> NewECP
|600> N_core 0
|601>   lmax f
|602>   s 2
|603>    1      0.860000       9.191690  2
|604>    2      0.172000       0.008301  2
|605>   p 2
|606>    1      0.860000      17.997720  2
|607>    2      0.172000      -0.032600  2
|608>   d 2
|609>    1      1.600000      -9.504310  2
|610>    2      0.320000      -0.151370  2
|611>   f 1
|612>    1      1.000000000    0.000000000 2
|613> end
|614> Ti>    4.00000000000    6.50803929747    5.92218707193    1.98192821856
|615> NewECP
|616> N_core 0
|617>   lmax f
|618>   s 2
|619>    1      0.860000       9.191690  2
|620>    2      0.172000       0.008301  2
|621>   p 2
|622>    1      0.860000      17.997720  2
|623>    2      0.172000      -0.032600  2
|624>   d 2
|625>    1      1.600000      -9.504310  2
|626>    2      0.320000      -0.151370  2
|627>   f 1
|628>    1      1.000000000    0.000000000 2
|629> end
|630> Ti>    4.00000000000    6.50803929747   -5.92218707193    1.98192821856
|631> NewECP
|632> N_core 0
|633>   lmax f
|634>   s 2
|635>    1      0.860000       9.191690  2
|636>    2      0.172000       0.008301  2
|637>   p 2
|638>    1      0.860000      17.997720  2
|639>    2      0.172000      -0.032600  2
|640>   d 2
|641>    1      1.600000      -9.504310  2
|642>    2      0.320000      -0.151370  2
|643>   f 1
|644>    1      1.000000000    0.000000000 2
|645> end
|646> Ti>    4.00000000000   -6.50803929747   -5.92218707193    1.98192821856
|647> NewECP
|648> N_core 0
|649>   lmax f
|650>   s 2
|651>    1      0.860000       9.191690  2
|652>    2      0.172000       0.008301  2
|653>   p 2
|654>    1      0.860000      17.997720  2
|655>    2      0.172000      -0.032600  2
|656>   d 2
|657>    1      1.600000      -9.504310  2
|658>    2      0.320000      -0.151370  2
|659>   f 1
|660>    1      1.000000000    0.000000000 2
|661> end
|662> Ti>    4.00000000000    0.00000000000    7.40273383991    5.23594786729
|663> NewECP
|664> N_core 0
|665>   lmax f
|666>   s 2
|667>    1      0.860000       9.191690  2
|668>    2      0.172000       0.008301  2
|669>   p 2
|670>    1      0.860000      17.997720  2
|671>    2      0.172000      -0.032600  2
|672>   d 2
|673>    1      1.600000      -9.504310  2
|674>    2      0.320000      -0.151370  2
|675>   f 1
|676>    1      1.000000000    0.000000000 2
|677> end
|678> Ti>    4.00000000000    0.00000000000   -7.40273383991    5.23594786729
|679> NewECP
|680> N_core 0
|681>   lmax f
|682>   s 2
|683>    1      0.860000       9.191690  2
|684>    2      0.172000       0.008301  2
|685>   p 2
|686>    1      0.860000      17.997720  2
|687>    2      0.172000      -0.032600  2
|688>   d 2
|689>    1      1.600000      -9.504310  2
|690>    2      0.320000      -0.151370  2
|691>   f 1
|692>    1      1.000000000    0.000000000 2
|693> end
|694> Ti>    4.00000000000    0.00000000000    8.88328060789    1.98192821856
|695> NewECP
|696> N_core 0
|697>   lmax f
|698>   s 2
|699>    1      0.860000       9.191690  2
|700>    2      0.172000       0.008301  2
|701>   p 2
|702>    1      0.860000      17.997720  2
|703>    2      0.172000      -0.032600  2
|704>   d 2
|705>    1      1.600000      -9.504310  2
|706>    2      0.320000      -0.151370  2
|707>   f 1
|708>    1      1.000000000    0.000000000 2
|709> end
|710> Ti>    4.00000000000    0.00000000000   -8.88328060789    1.98192821856
|711> NewECP
|712> N_core 0
|713>   lmax f
|714>   s 2
|715>    1      0.860000       9.191690  2
|716>    2      0.172000       0.008301  2
|717>   p 2
|718>    1      0.860000      17.997720  2
|719>    2      0.172000      -0.032600  2
|720>   d 2
|721>    1      1.600000      -9.504310  2
|722>    2      0.320000      -0.151370  2
|723>   f 1
|724>    1      1.000000000    0.000000000 2
|725> end
|726> Ti>    4.00000000000   -3.25401964873    1.48054676798    8.48996751602
|727> NewECP
|728> N_core 0
|729>   lmax f
|730>   s 2
|731>    1      0.860000       9.191690  2
|732>    2      0.172000       0.008301  2
|733>   p 2
|734>    1      0.860000      17.997720  2
|735>    2      0.172000      -0.032600  2
|736>   d 2
|737>    1      1.600000      -9.504310  2
|738>    2      0.320000      -0.151370  2
|739>   f 1
|740>    1      1.000000000    0.000000000 2
|741> end
|742> Ti>    4.00000000000    3.25401964873    1.48054676798    8.48996751602
|743> NewECP
|744> N_core 0
|745>   lmax f
|746>   s 2
|747>    1      0.860000       9.191690  2
|748>    2      0.172000       0.008301  2
|749>   p 2
|750>    1      0.860000      17.997720  2
|751>    2      0.172000      -0.032600  2
|752>   d 2
|753>    1      1.600000      -9.504310  2
|754>    2      0.320000      -0.151370  2
|755>   f 1
|756>    1      1.000000000    0.000000000 2
|757> end
|758> Ti>    4.00000000000    3.25401964873   -1.48054676798    8.48996751602
|759> NewECP
|760> N_core 0
|761>   lmax f
|762>   s 2
|763>    1      0.860000       9.191690  2
|764>    2      0.172000       0.008301  2
|765>   p 2
|766>    1      0.860000      17.997720  2
|767>    2      0.172000      -0.032600  2
|768>   d 2
|769>    1      1.600000      -9.504310  2
|770>    2      0.320000      -0.151370  2
|771>   f 1
|772>    1      1.000000000    0.000000000 2
|773> end
|774> Ti>    4.00000000000   -3.25401964873   -1.48054676798    8.48996751602
|775> NewECP
|776> N_core 0
|777>   lmax f
|778>   s 2
|779>    1      0.860000       9.191690  2
|780>    2      0.172000       0.008301  2
|781>   p 2
|782>    1      0.860000      17.997720  2
|783>    2      0.172000      -0.032600  2
|784>   d 2
|785>    1      1.600000      -9.504310  2
|786>    2      0.320000      -0.151370  2
|787>   f 1
|788>    1      1.000000000    0.000000000 2
|789> end
|790> Ti>    4.00000000000   -3.25401964873    7.40273383991   -4.52611107891
|791> NewECP
|792> N_core 0
|793>   lmax f
|794>   s 2
|795>    1      0.860000       9.191690  2
|796>    2      0.172000       0.008301  2
|797>   p 2
|798>    1      0.860000      17.997720  2
|799>    2      0.172000      -0.032600  2
|800>   d 2
|801>    1      1.600000      -9.504310  2
|802>    2      0.320000      -0.151370  2
|803>   f 1
|804>    1      1.000000000    0.000000000 2
|805> end
|806> Ti>    4.00000000000    3.25401964873    7.40273383991   -4.52611107891
|807> NewECP
|808> N_core 0
|809>   lmax f
|810>   s 2
|811>    1      0.860000       9.191690  2
|812>    2      0.172000       0.008301  2
|813>   p 2
|814>    1      0.860000      17.997720  2
|815>    2      0.172000      -0.032600  2
|816>   d 2
|817>    1      1.600000      -9.504310  2
|818>    2      0.320000      -0.151370  2
|819>   f 1
|820>    1      1.000000000    0.000000000 2
|821> end
|822> Ti>    4.00000000000    3.25401964873   -7.40273383991   -4.52611107891
|823> NewECP
|824> N_core 0
|825>   lmax f
|826>   s 2
|827>    1      0.860000       9.191690  2
|828>    2      0.172000       0.008301  2
|829>   p 2
|830>    1      0.860000      17.997720  2
|831>    2      0.172000      -0.032600  2
|832>   d 2
|833>    1      1.600000      -9.504310  2
|834>    2      0.320000      -0.151370  2
|835>   f 1
|836>    1      1.000000000    0.000000000 2
|837> end
|838> Ti>    4.00000000000   -3.25401964873   -7.40273383991   -4.52611107891
|839> NewECP
|840> N_core 0
|841>   lmax f
|842>   s 2
|843>    1      0.860000       9.191690  2
|844>    2      0.172000       0.008301  2
|845>   p 2
|846>    1      0.860000      17.997720  2
|847>    2      0.172000      -0.032600  2
|848>   d 2
|849>    1      1.600000      -9.504310  2
|850>    2      0.320000      -0.151370  2
|851>   f 1
|852>    1      1.000000000    0.000000000 2
|853> end
|854> Ti>    4.00000000000   -6.50803929747    4.44164030394    5.23594786729
|855> NewECP
|856> N_core 0
|857>   lmax f
|858>   s 2
|859>    1      0.860000       9.191690  2
|860>    2      0.172000       0.008301  2
|861>   p 2
|862>    1      0.860000      17.997720  2
|863>    2      0.172000      -0.032600  2
|864>   d 2
|865>    1      1.600000      -9.504310  2
|866>    2      0.320000      -0.151370  2
|867>   f 1
|868>    1      1.000000000    0.000000000 2
|869> end
|870> Ti>    4.00000000000    6.50803929747    4.44164030394    5.23594786729
|871> NewECP
|872> N_core 0
|873>   lmax f
|874>   s 2
|875>    1      0.860000       9.191690  2
|876>    2      0.172000       0.008301  2
|877>   p 2
|878>    1      0.860000      17.997720  2
|879>    2      0.172000      -0.032600  2
|880>   d 2
|881>    1      1.600000      -9.504310  2
|882>    2      0.320000      -0.151370  2
|883>   f 1
|884>    1      1.000000000    0.000000000 2
|885> end
|886> Ti>    4.00000000000    6.50803929747   -4.44164030394    5.23594786729
|887> NewECP
|888> N_core 0
|889>   lmax f
|890>   s 2
|891>    1      0.860000       9.191690  2
|892>    2      0.172000       0.008301  2
|893>   p 2
|894>    1      0.860000      17.997720  2
|895>    2      0.172000      -0.032600  2
|896>   d 2
|897>    1      1.600000      -9.504310  2
|898>    2      0.320000      -0.151370  2
|899>   f 1
|900>    1      1.000000000    0.000000000 2
|901> end
|902> Ti>    4.00000000000   -6.50803929747   -4.44164030394    5.23594786729
|903> NewECP
|904> N_core 0
|905>   lmax f
|906>   s 2
|907>    1      0.860000       9.191690  2
|908>    2      0.172000       0.008301  2
|909>   p 2
|910>    1      0.860000      17.997720  2
|911>    2      0.172000      -0.032600  2
|912>   d 2
|913>    1      1.600000      -9.504310  2
|914>    2      0.320000      -0.151370  2
|915>   f 1
|916>    1      1.000000000    0.000000000 2
|917> end
|918> Ti>    4.00000000000   -3.25401964873    8.88328060789   -1.27209143018
|919> NewECP
|920> N_core 0
|921>   lmax f
|922>   s 2
|923>    1      0.860000       9.191690  2
|924>    2      0.172000       0.008301  2
|925>   p 2
|926>    1      0.860000      17.997720  2
|927>    2      0.172000      -0.032600  2
|928>   d 2
|929>    1      1.600000      -9.504310  2
|930>    2      0.320000      -0.151370  2
|931>   f 1
|932>    1      1.000000000    0.000000000 2
|933> end
|934> Ti>    4.00000000000    3.25401964873    8.88328060789   -1.27209143018
|935> NewECP
|936> N_core 0
|937>   lmax f
|938>   s 2
|939>    1      0.860000       9.191690  2
|940>    2      0.172000       0.008301  2
|941>   p 2
|942>    1      0.860000      17.997720  2
|943>    2      0.172000      -0.032600  2
|944>   d 2
|945>    1      1.600000      -9.504310  2
|946>    2      0.320000      -0.151370  2
|947>   f 1
|948>    1      1.000000000    0.000000000 2
|949> end
|950> Ti>    4.00000000000    3.25401964873   -8.88328060789   -1.27209143018
|951> NewECP
|952> N_core 0
|953>   lmax f
|954>   s 2
|955>    1      0.860000       9.191690  2
|956>    2      0.172000       0.008301  2
|957>   p 2
|958>    1      0.860000      17.997720  2
|959>    2      0.172000      -0.032600  2
|960>   d 2
|961>    1      1.600000      -9.504310  2
|962>    2      0.320000      -0.151370  2
|963>   f 1
|964>    1      1.000000000    0.000000000 2
|965> end
|966> Ti>    4.00000000000   -3.25401964873   -8.88328060789   -1.27209143018
|967> NewECP
|968> N_core 0
|969>   lmax f
|970>   s 2
|971>    1      0.860000       9.191690  2
|972>    2      0.172000       0.008301  2
|973>   p 2
|974>    1      0.860000      17.997720  2
|975>    2      0.172000      -0.032600  2
|976>   d 2
|977>    1      1.600000      -9.504310  2
|978>    2      0.320000      -0.151370  2
|979>   f 1
|980>    1      1.000000000    0.000000000 2
|981> end
|982> Ti>    4.00000000000   -9.76205894620    0.00000000000   -1.27209143018
|983> NewECP
|984> N_core 0
|985>   lmax f
|986>   s 2
|987>    1      0.860000       9.191690  2
|988>    2      0.172000       0.008301  2
|989>   p 2
|990>    1      0.860000      17.997720  2
|991>    2      0.172000      -0.032600  2
|992>   d 2
|993>    1      1.600000      -9.504310  2
|994>    2      0.320000      -0.151370  2
|995>   f 1
|996>    1      1.000000000    0.000000000 2
|997> end
|998> Ti>    4.00000000000    9.76205894620    0.00000000000   -1.27209143018
|999> NewECP
|1000> N_core 0
|1001>   lmax f
|1002>   s 2
|1003>    1      0.860000       9.191690  2
|1004>    2      0.172000       0.008301  2
|1005>   p 2
|1006>    1      0.860000      17.997720  2
|1007>    2      0.172000      -0.032600  2
|1008>   d 2
|1009>    1      1.600000      -9.504310  2
|1010>    2      0.320000      -0.151370  2
|1011>   f 1
|1012>    1      1.000000000    0.000000000 2
|1013> end
|1014> Ti>    4.00000000000   -6.50803929747    5.92218707193   -4.52611107891
|1015> NewECP
|1016> N_core 0
|1017>   lmax f
|1018>   s 2
|1019>    1      0.860000       9.191690  2
|1020>    2      0.172000       0.008301  2
|1021>   p 2
|1022>    1      0.860000      17.997720  2
|1023>    2      0.172000      -0.032600  2
|1024>   d 2
|1025>    1      1.600000      -9.504310  2
|1026>    2      0.320000      -0.151370  2
|1027>   f 1
|1028>    1      1.000000000    0.000000000 2
|1029> end
|1030> Ti>    4.00000000000    6.50803929747    5.92218707193   -4.52611107891
|1031> NewECP
|1032> N_core 0
|1033>   lmax f
|1034>   s 2
|1035>    1      0.860000       9.191690  2
|1036>    2      0.172000       0.008301  2
|1037>   p 2
|1038>    1      0.860000      17.997720  2
|1039>    2      0.172000      -0.032600  2
|1040>   d 2
|1041>    1      1.600000      -9.504310  2
|1042>    2      0.320000      -0.151370  2
|1043>   f 1
|1044>    1      1.000000000    0.000000000 2
|1045> end
|1046> Ti>    4.00000000000    6.50803929747   -5.92218707193   -4.52611107891
|1047> NewECP
|1048> N_core 0
|1049>   lmax f
|1050>   s 2
|1051>    1      0.860000       9.191690  2
|1052>    2      0.172000       0.008301  2
|1053>   p 2
|1054>    1      0.860000      17.997720  2
|1055>    2      0.172000      -0.032600  2
|1056>   d 2
|1057>    1      1.600000      -9.504310  2
|1058>    2      0.320000      -0.151370  2
|1059>   f 1
|1060>    1      1.000000000    0.000000000 2
|1061> end
|1062> Ti>    4.00000000000   -6.50803929747   -5.92218707193   -4.52611107891
|1063> NewECP
|1064> N_core 0
|1065>   lmax f
|1066>   s 2
|1067>    1      0.860000       9.191690  2
|1068>    2      0.172000       0.008301  2
|1069>   p 2
|1070>    1      0.860000      17.997720  2
|1071>    2      0.172000      -0.032600  2
|1072>   d 2
|1073>    1      1.600000      -9.504310  2
|1074>    2      0.320000      -0.151370  2
|1075>   f 1
|1076>    1      1.000000000    0.000000000 2
|1077> end
|1078> Ti>    4.00000000000   -6.50803929747    7.40273383991   -1.27209143018
|1079> NewECP
|1080> N_core 0
|1081>   lmax f
|1082>   s 2
|1083>    1      0.860000       9.191690  2
|1084>    2      0.172000       0.008301  2
|1085>   p 2
|1086>    1      0.860000      17.997720  2
|1087>    2      0.172000      -0.032600  2
|1088>   d 2
|1089>    1      1.600000      -9.504310  2
|1090>    2      0.320000      -0.151370  2
|1091>   f 1
|1092>    1      1.000000000    0.000000000 2
|1093> end
|1094> Ti>    4.00000000000    6.50803929747    7.40273383991   -1.27209143018
|1095> NewECP
|1096> N_core 0
|1097>   lmax f
|1098>   s 2
|1099>    1      0.860000       9.191690  2
|1100>    2      0.172000       0.008301  2
|1101>   p 2
|1102>    1      0.860000      17.997720  2
|1103>    2      0.172000      -0.032600  2
|1104>   d 2
|1105>    1      1.600000      -9.504310  2
|1106>    2      0.320000      -0.151370  2
|1107>   f 1
|1108>    1      1.000000000    0.000000000 2
|1109> end
|1110> Ti>    4.00000000000    6.50803929747   -7.40273383991   -1.27209143018
|1111> NewECP
|1112> N_core 0
|1113>   lmax f
|1114>   s 2
|1115>    1      0.860000       9.191690  2
|1116>    2      0.172000       0.008301  2
|1117>   p 2
|1118>    1      0.860000      17.997720  2
|1119>    2      0.172000      -0.032600  2
|1120>   d 2
|1121>    1      1.600000      -9.504310  2
|1122>    2      0.320000      -0.151370  2
|1123>   f 1
|1124>    1      1.000000000    0.000000000 2
|1125> end
|1126> Ti>    4.00000000000   -6.50803929747   -7.40273383991   -1.27209143018
|1127> NewECP
|1128> N_core 0
|1129>   lmax f
|1130>   s 2
|1131>    1      0.860000       9.191690  2
|1132>    2      0.172000       0.008301  2
|1133>   p 2
|1134>    1      0.860000      17.997720  2
|1135>    2      0.172000      -0.032600  2
|1136>   d 2
|1137>    1      1.600000      -9.504310  2
|1138>    2      0.320000      -0.151370  2
|1139>   f 1
|1140>    1      1.000000000    0.000000000 2
|1141> end
|1142> Ti>    4.00000000000    0.00000000000    8.88328060789   -4.52611107891
|1143> NewECP
|1144> N_core 0
|1145>   lmax f
|1146>   s 2
|1147>    1      0.860000       9.191690  2
|1148>    2      0.172000       0.008301  2
|1149>   p 2
|1150>    1      0.860000      17.997720  2
|1151>    2      0.172000      -0.032600  2
|1152>   d 2
|1153>    1      1.600000      -9.504310  2
|1154>    2      0.320000      -0.151370  2
|1155>   f 1
|1156>    1      1.000000000    0.000000000 2
|1157> end
|1158> Ti>    4.00000000000    0.00000000000   -8.88328060789   -4.52611107891
|1159> NewECP
|1160> N_core 0
|1161>   lmax f
|1162>   s 2
|1163>    1      0.860000       9.191690  2
|1164>    2      0.172000       0.008301  2
|1165>   p 2
|1166>    1      0.860000      17.997720  2
|1167>    2      0.172000      -0.032600  2
|1168>   d 2
|1169>    1      1.600000      -9.504310  2
|1170>    2      0.320000      -0.151370  2
|1171>   f 1
|1172>    1      1.000000000    0.000000000 2
|1173> end
|1174> Ti>    4.00000000000   -9.76205894620    1.48054676798    1.98192821856
|1175> NewECP
|1176> N_core 0
|1177>   lmax f
|1178>   s 2
|1179>    1      0.860000       9.191690  2
|1180>    2      0.172000       0.008301  2
|1181>   p 2
|1182>    1      0.860000      17.997720  2
|1183>    2      0.172000      -0.032600  2
|1184>   d 2
|1185>    1      1.600000      -9.504310  2
|1186>    2      0.320000      -0.151370  2
|1187>   f 1
|1188>    1      1.000000000    0.000000000 2
|1189> end
|1190> Ti>    4.00000000000    9.76205894620    1.48054676798    1.98192821856
|1191> NewECP
|1192> N_core 0
|1193>   lmax f
|1194>   s 2
|1195>    1      0.860000       9.191690  2
|1196>    2      0.172000       0.008301  2
|1197>   p 2
|1198>    1      0.860000      17.997720  2
|1199>    2      0.172000      -0.032600  2
|1200>   d 2
|1201>    1      1.600000      -9.504310  2
|1202>    2      0.320000      -0.151370  2
|1203>   f 1
|1204>    1      1.000000000    0.000000000 2
|1205> end
|1206> Ti>    4.00000000000    9.76205894620   -1.48054676798    1.98192821856
|1207> NewECP
|1208> N_core 0
|1209>   lmax f
|1210>   s 2
|1211>    1      0.860000       9.191690  2
|1212>    2      0.172000       0.008301  2
|1213>   p 2
|1214>    1      0.860000      17.997720  2
|1215>    2      0.172000      -0.032600  2
|1216>   d 2
|1217>    1      1.600000      -9.504310  2
|1218>    2      0.320000      -0.151370  2
|1219>   f 1
|1220>    1      1.000000000    0.000000000 2
|1221> end
|1222> Ti>    4.00000000000   -9.76205894620   -1.48054676798    1.98192821856
|1223> NewECP
|1224> N_core 0
|1225>   lmax f
|1226>   s 2
|1227>    1      0.860000       9.191690  2
|1228>    2      0.172000       0.008301  2
|1229>   p 2
|1230>    1      0.860000      17.997720  2
|1231>    2      0.172000      -0.032600  2
|1232>   d 2
|1233>    1      1.600000      -9.504310  2
|1234>    2      0.320000      -0.151370  2
|1235>   f 1
|1236>    1      1.000000000    0.000000000 2
|1237> end
|1238> Ti>    4.00000000000   -3.25401964873    4.44164030394    8.48996751602
|1239> NewECP
|1240> N_core 0
|1241>   lmax f
|1242>   s 2
|1243>    1      0.860000       9.191690  2
|1244>    2      0.172000       0.008301  2
|1245>   p 2
|1246>    1      0.860000      17.997720  2
|1247>    2      0.172000      -0.032600  2
|1248>   d 2
|1249>    1      1.600000      -9.504310  2
|1250>    2      0.320000      -0.151370  2
|1251>   f 1
|1252>    1      1.000000000    0.000000000 2
|1253> end
|1254> Ti>    4.00000000000    3.25401964873    4.44164030394    8.48996751602
|1255> NewECP
|1256> N_core 0
|1257>   lmax f
|1258>   s 2
|1259>    1      0.860000       9.191690  2
|1260>    2      0.172000       0.008301  2
|1261>   p 2
|1262>    1      0.860000      17.997720  2
|1263>    2      0.172000      -0.032600  2
|1264>   d 2
|1265>    1      1.600000      -9.504310  2
|1266>    2      0.320000      -0.151370  2
|1267>   f 1
|1268>    1      1.000000000    0.000000000 2
|1269> end
|1270> Ti>    4.00000000000    3.25401964873   -4.44164030394    8.48996751602
|1271> NewECP
|1272> N_core 0
|1273>   lmax f
|1274>   s 2
|1275>    1      0.860000       9.191690  2
|1276>    2      0.172000       0.008301  2
|1277>   p 2
|1278>    1      0.860000      17.997720  2
|1279>    2      0.172000      -0.032600  2
|1280>   d 2
|1281>    1      1.600000      -9.504310  2
|1282>    2      0.320000      -0.151370  2
|1283>   f 1
|1284>    1      1.000000000    0.000000000 2
|1285> end
|1286> Ti>    4.00000000000   -3.25401964873   -4.44164030394    8.48996751602
|1287> NewECP
|1288> N_core 0
|1289>   lmax f
|1290>   s 2
|1291>    1      0.860000       9.191690  2
|1292>    2      0.172000       0.008301  2
|1293>   p 2
|1294>    1      0.860000      17.997720  2
|1295>    2      0.172000      -0.032600  2
|1296>   d 2
|1297>    1      1.600000      -9.504310  2
|1298>    2      0.320000      -0.151370  2
|1299>   f 1
|1300>    1      1.000000000    0.000000000 2
|1301> end
|1302> Ti>    4.00000000000   -6.50803929747    1.48054676798   -7.78013072764
|1303> NewECP
|1304> N_core 0
|1305>   lmax f
|1306>   s 2
|1307>    1      0.860000       9.191690  2
|1308>    2      0.172000       0.008301  2
|1309>   p 2
|1310>    1      0.860000      17.997720  2
|1311>    2      0.172000      -0.032600  2
|1312>   d 2
|1313>    1      1.600000      -9.504310  2
|1314>    2      0.320000      -0.151370  2
|1315>   f 1
|1316>    1      1.000000000    0.000000000 2
|1317> end
|1318> Ti>    4.00000000000    6.50803929747    1.48054676798   -7.78013072764
|1319> NewECP
|1320> N_core 0
|1321>   lmax f
|1322>   s 2
|1323>    1      0.860000       9.191690  2
|1324>    2      0.172000       0.008301  2
|1325>   p 2
|1326>    1      0.860000      17.997720  2
|1327>    2      0.172000      -0.032600  2
|1328>   d 2
|1329>    1      1.600000      -9.504310  2
|1330>    2      0.320000      -0.151370  2
|1331>   f 1
|1332>    1      1.000000000    0.000000000 2
|1333> end
|1334> Ti>    4.00000000000    6.50803929747   -1.48054676798   -7.78013072764
|1335> NewECP
|1336> N_core 0
|1337>   lmax f
|1338>   s 2
|1339>    1      0.860000       9.191690  2
|1340>    2      0.172000       0.008301  2
|1341>   p 2
|1342>    1      0.860000      17.997720  2
|1343>    2      0.172000      -0.032600  2
|1344>   d 2
|1345>    1      1.600000      -9.504310  2
|1346>    2      0.320000      -0.151370  2
|1347>   f 1
|1348>    1      1.000000000    0.000000000 2
|1349> end
|1350> Ti>    4.00000000000   -6.50803929747   -1.48054676798   -7.78013072764
|1351> NewECP
|1352> N_core 0
|1353>   lmax f
|1354>   s 2
|1355>    1      0.860000       9.191690  2
|1356>    2      0.172000       0.008301  2
|1357>   p 2
|1358>    1      0.860000      17.997720  2
|1359>    2      0.172000      -0.032600  2
|1360>   d 2
|1361>    1      1.600000      -9.504310  2
|1362>    2      0.320000      -0.151370  2
|1363>   f 1
|1364>    1      1.000000000    0.000000000 2
|1365> end
|1366> Ti>    4.00000000000   -9.76205894620    2.96109353596   -1.27209143018
|1367> NewECP
|1368> N_core 0
|1369>   lmax f
|1370>   s 2
|1371>    1      0.860000       9.191690  2
|1372>    2      0.172000       0.008301  2
|1373>   p 2
|1374>    1      0.860000      17.997720  2
|1375>    2      0.172000      -0.032600  2
|1376>   d 2
|1377>    1      1.600000      -9.504310  2
|1378>    2      0.320000      -0.151370  2
|1379>   f 1
|1380>    1      1.000000000    0.000000000 2
|1381> end
|1382> Ti>    4.00000000000    9.76205894620    2.96109353596   -1.27209143018
|1383> NewECP
|1384> N_core 0
|1385>   lmax f
|1386>   s 2
|1387>    1      0.860000       9.191690  2
|1388>    2      0.172000       0.008301  2
|1389>   p 2
|1390>    1      0.860000      17.997720  2
|1391>    2      0.172000      -0.032600  2
|1392>   d 2
|1393>    1      1.600000      -9.504310  2
|1394>    2      0.320000      -0.151370  2
|1395>   f 1
|1396>    1      1.000000000    0.000000000 2
|1397> end
|1398> Ti>    4.00000000000    9.76205894620   -2.96109353596   -1.27209143018
|1399> NewECP
|1400> N_core 0
|1401>   lmax f
|1402>   s 2
|1403>    1      0.860000       9.191690  2
|1404>    2      0.172000       0.008301  2
|1405>   p 2
|1406>    1      0.860000      17.997720  2
|1407>    2      0.172000      -0.032600  2
|1408>   d 2
|1409>    1      1.600000      -9.504310  2
|1410>    2      0.320000      -0.151370  2
|1411>   f 1
|1412>    1      1.000000000    0.000000000 2
|1413> end
|1414> Ti>    4.00000000000   -9.76205894620   -2.96109353596   -1.27209143018
|1415> NewECP
|1416> N_core 0
|1417>   lmax f
|1418>   s 2
|1419>    1      0.860000       9.191690  2
|1420>    2      0.172000       0.008301  2
|1421>   p 2
|1422>    1      0.860000      17.997720  2
|1423>    2      0.172000      -0.032600  2
|1424>   d 2
|1425>    1      1.600000      -9.504310  2
|1426>    2      0.320000      -0.151370  2
|1427>   f 1
|1428>    1      1.000000000    0.000000000 2
|1429> end
|1430> Ti>    4.00000000000   -3.25401964873    5.92218707193   -7.78013072764
|1431> NewECP
|1432> N_core 0
|1433>   lmax f
|1434>   s 2
|1435>    1      0.860000       9.191690  2
|1436>    2      0.172000       0.008301  2
|1437>   p 2
|1438>    1      0.860000      17.997720  2
|1439>    2      0.172000      -0.032600  2
|1440>   d 2
|1441>    1      1.600000      -9.504310  2
|1442>    2      0.320000      -0.151370  2
|1443>   f 1
|1444>    1      1.000000000    0.000000000 2
|1445> end
|1446> Ti>    4.00000000000    3.25401964873    5.92218707193   -7.78013072764
|1447> NewECP
|1448> N_core 0
|1449>   lmax f
|1450>   s 2
|1451>    1      0.860000       9.191690  2
|1452>    2      0.172000       0.008301  2
|1453>   p 2
|1454>    1      0.860000      17.997720  2
|1455>    2      0.172000      -0.032600  2
|1456>   d 2
|1457>    1      1.600000      -9.504310  2
|1458>    2      0.320000      -0.151370  2
|1459>   f 1
|1460>    1      1.000000000    0.000000000 2
|1461> end
|1462> Ti>    4.00000000000    3.25401964873   -5.92218707193   -7.78013072764
|1463> NewECP
|1464> N_core 0
|1465>   lmax f
|1466>   s 2
|1467>    1      0.860000       9.191690  2
|1468>    2      0.172000       0.008301  2
|1469>   p 2
|1470>    1      0.860000      17.997720  2
|1471>    2      0.172000      -0.032600  2
|1472>   d 2
|1473>    1      1.600000      -9.504310  2
|1474>    2      0.320000      -0.151370  2
|1475>   f 1
|1476>    1      1.000000000    0.000000000 2
|1477> end
|1478> Ti>    4.00000000000   -3.25401964873   -5.92218707193   -7.78013072764
|1479> NewECP
|1480> N_core 0
|1481>   lmax f
|1482>   s 2
|1483>    1      0.860000       9.191690  2
|1484>    2      0.172000       0.008301  2
|1485>   p 2
|1486>    1      0.860000      17.997720  2
|1487>    2      0.172000      -0.032600  2
|1488>   d 2
|1489>    1      1.600000      -9.504310  2
|1490>    2      0.320000      -0.151370  2
|1491>   f 1
|1492>    1      1.000000000    0.000000000 2
|1493> end
|1494> Ti>    4.00000000000    0.00000000000    5.92218707193    8.48996751602
|1495> NewECP
|1496> N_core 0
|1497>   lmax f
|1498>   s 2
|1499>    1      0.860000       9.191690  2
|1500>    2      0.172000       0.008301  2
|1501>   p 2
|1502>    1      0.860000      17.997720  2
|1503>    2      0.172000      -0.032600  2
|1504>   d 2
|1505>    1      1.600000      -9.504310  2
|1506>    2      0.320000      -0.151370  2
|1507>   f 1
|1508>    1      1.000000000    0.000000000 2
|1509> end
|1510> Ti>    4.00000000000    0.00000000000   -5.92218707193    8.48996751602
|1511> NewECP
|1512> N_core 0
|1513>   lmax f
|1514>   s 2
|1515>    1      0.860000       9.191690  2
|1516>    2      0.172000       0.008301  2
|1517>   p 2
|1518>    1      0.860000      17.997720  2
|1519>    2      0.172000      -0.032600  2
|1520>   d 2
|1521>    1      1.600000      -9.504310  2
|1522>    2      0.320000      -0.151370  2
|1523>   f 1
|1524>    1      1.000000000    0.000000000 2
|1525> end
|1526> Ti>    4.00000000000    0.00000000000   10.36382737587   -1.27209143018
|1527> NewECP
|1528> N_core 0
|1529>   lmax f
|1530>   s 2
|1531>    1      0.860000       9.191690  2
|1532>    2      0.172000       0.008301  2
|1533>   p 2
|1534>    1      0.860000      17.997720  2
|1535>    2      0.172000      -0.032600  2
|1536>   d 2
|1537>    1      1.600000      -9.504310  2
|1538>    2      0.320000      -0.151370  2
|1539>   f 1
|1540>    1      1.000000000    0.000000000 2
|1541> end
|1542> Ti>    4.00000000000    0.00000000000  -10.36382737587   -1.27209143018
|1543> NewECP
|1544> N_core 0
|1545>   lmax f
|1546>   s 2
|1547>    1      0.860000       9.191690  2
|1548>    2      0.172000       0.008301  2
|1549>   p 2
|1550>    1      0.860000      17.997720  2
|1551>    2      0.172000      -0.032600  2
|1552>   d 2
|1553>    1      1.600000      -9.504310  2
|1554>    2      0.320000      -0.151370  2
|1555>   f 1
|1556>    1      1.000000000    0.000000000 2
|1557> end
|1558> Ti>    4.00000000000   -6.50803929747    0.00000000000    8.48996751602
|1559> NewECP
|1560> N_core 0
|1561>   lmax f
|1562>   s 2
|1563>    1      0.860000       9.191690  2
|1564>    2      0.172000       0.008301  2
|1565>   p 2
|1566>    1      0.860000      17.997720  2
|1567>    2      0.172000      -0.032600  2
|1568>   d 2
|1569>    1      1.600000      -9.504310  2
|1570>    2      0.320000      -0.151370  2
|1571>   f 1
|1572>    1      1.000000000    0.000000000 2
|1573> end
|1574> Ti>    4.00000000000    6.50803929747    0.00000000000    8.48996751602
|1575> NewECP
|1576> N_core 0
|1577>   lmax f
|1578>   s 2
|1579>    1      0.860000       9.191690  2
|1580>    2      0.172000       0.008301  2
|1581>   p 2
|1582>    1      0.860000      17.997720  2
|1583>    2      0.172000      -0.032600  2
|1584>   d 2
|1585>    1      1.600000      -9.504310  2
|1586>    2      0.320000      -0.151370  2
|1587>   f 1
|1588>    1      1.000000000    0.000000000 2
|1589> end
|1590> Ti>    4.00000000000    0.00000000000    7.40273383991   -7.78013072764
|1591> NewECP
|1592> N_core 0
|1593>   lmax f
|1594>   s 2
|1595>    1      0.860000       9.191690  2
|1596>    2      0.172000       0.008301  2
|1597>   p 2
|1598>    1      0.860000      17.997720  2
|1599>    2      0.172000      -0.032600  2
|1600>   d 2
|1601>    1      1.600000      -9.504310  2
|1602>    2      0.320000      -0.151370  2
|1603>   f 1
|1604>    1      1.000000000    0.000000000 2
|1605> end
|1606> Ti>    4.00000000000    0.00000000000   -7.40273383991   -7.78013072764
|1607> NewECP
|1608> N_core 0
|1609>   lmax f
|1610>   s 2
|1611>    1      0.860000       9.191690  2
|1612>    2      0.172000       0.008301  2
|1613>   p 2
|1614>    1      0.860000      17.997720  2
|1615>    2      0.172000      -0.032600  2
|1616>   d 2
|1617>    1      1.600000      -9.504310  2
|1618>    2      0.320000      -0.151370  2
|1619>   f 1
|1620>    1      1.000000000    0.000000000 2
|1621> end
|1622> Ti>    4.00000000000   -3.25401964873    8.88328060789    5.23594786729
|1623> NewECP
|1624> N_core 0
|1625>   lmax f
|1626>   s 2
|1627>    1      0.860000       9.191690  2
|1628>    2      0.172000       0.008301  2
|1629>   p 2
|1630>    1      0.860000      17.997720  2
|1631>    2      0.172000      -0.032600  2
|1632>   d 2
|1633>    1      1.600000      -9.504310  2
|1634>    2      0.320000      -0.151370  2
|1635>   f 1
|1636>    1      1.000000000    0.000000000 2
|1637> end
|1638> Ti>    4.00000000000    3.25401964873    8.88328060789    5.23594786729
|1639> NewECP
|1640> N_core 0
|1641>   lmax f
|1642>   s 2
|1643>    1      0.860000       9.191690  2
|1644>    2      0.172000       0.008301  2
|1645>   p 2
|1646>    1      0.860000      17.997720  2
|1647>    2      0.172000      -0.032600  2
|1648>   d 2
|1649>    1      1.600000      -9.504310  2
|1650>    2      0.320000      -0.151370  2
|1651>   f 1
|1652>    1      1.000000000    0.000000000 2
|1653> end
|1654> Ti>    4.00000000000    3.25401964873   -8.88328060789    5.23594786729
|1655> NewECP
|1656> N_core 0
|1657>   lmax f
|1658>   s 2
|1659>    1      0.860000       9.191690  2
|1660>    2      0.172000       0.008301  2
|1661>   p 2
|1662>    1      0.860000      17.997720  2
|1663>    2      0.172000      -0.032600  2
|1664>   d 2
|1665>    1      1.600000      -9.504310  2
|1666>    2      0.320000      -0.151370  2
|1667>   f 1
|1668>    1      1.000000000    0.000000000 2
|1669> end
|1670> Ti>    4.00000000000   -3.25401964873   -8.88328060789    5.23594786729
|1671> NewECP
|1672> N_core 0
|1673>   lmax f
|1674>   s 2
|1675>    1      0.860000       9.191690  2
|1676>    2      0.172000       0.008301  2
|1677>   p 2
|1678>    1      0.860000      17.997720  2
|1679>    2      0.172000      -0.032600  2
|1680>   d 2
|1681>    1      1.600000      -9.504310  2
|1682>    2      0.320000      -0.151370  2
|1683>   f 1
|1684>    1      1.000000000    0.000000000 2
|1685> end
|1686> Ti>    4.00000000000   -9.76205894620    1.48054676798   -4.52611107891
|1687> NewECP
|1688> N_core 0
|1689>   lmax f
|1690>   s 2
|1691>    1      0.860000       9.191690  2
|1692>    2      0.172000       0.008301  2
|1693>   p 2
|1694>    1      0.860000      17.997720  2
|1695>    2      0.172000      -0.032600  2
|1696>   d 2
|1697>    1      1.600000      -9.504310  2
|1698>    2      0.320000      -0.151370  2
|1699>   f 1
|1700>    1      1.000000000    0.000000000 2
|1701> end
|1702> Ti>    4.00000000000    9.76205894620    1.48054676798   -4.52611107891
|1703> NewECP
|1704> N_core 0
|1705>   lmax f
|1706>   s 2
|1707>    1      0.860000       9.191690  2
|1708>    2      0.172000       0.008301  2
|1709>   p 2
|1710>    1      0.860000      17.997720  2
|1711>    2      0.172000      -0.032600  2
|1712>   d 2
|1713>    1      1.600000      -9.504310  2
|1714>    2      0.320000      -0.151370  2
|1715>   f 1
|1716>    1      1.000000000    0.000000000 2
|1717> end
|1718> Ti>    4.00000000000    9.76205894620   -1.48054676798   -4.52611107891
|1719> NewECP
|1720> N_core 0
|1721>   lmax f
|1722>   s 2
|1723>    1      0.860000       9.191690  2
|1724>    2      0.172000       0.008301  2
|1725>   p 2
|1726>    1      0.860000      17.997720  2
|1727>    2      0.172000      -0.032600  2
|1728>   d 2
|1729>    1      1.600000      -9.504310  2
|1730>    2      0.320000      -0.151370  2
|1731>   f 1
|1732>    1      1.000000000    0.000000000 2
|1733> end
|1734> Ti>    4.00000000000   -9.76205894620   -1.48054676798   -4.52611107891
|1735> NewECP
|1736> N_core 0
|1737>   lmax f
|1738>   s 2
|1739>    1      0.860000       9.191690  2
|1740>    2      0.172000       0.008301  2
|1741>   p 2
|1742>    1      0.860000      17.997720  2
|1743>    2      0.172000      -0.032600  2
|1744>   d 2
|1745>    1      1.600000      -9.504310  2
|1746>    2      0.320000      -0.151370  2
|1747>   f 1
|1748>    1      1.000000000    0.000000000 2
|1749> end
|1750> Ti>    4.00000000000   -9.76205894620    4.44164030394    1.98192821856
|1751> NewECP
|1752> N_core 0
|1753>   lmax f
|1754>   s 2
|1755>    1      0.860000       9.191690  2
|1756>    2      0.172000       0.008301  2
|1757>   p 2
|1758>    1      0.860000      17.997720  2
|1759>    2      0.172000      -0.032600  2
|1760>   d 2
|1761>    1      1.600000      -9.504310  2
|1762>    2      0.320000      -0.151370  2
|1763>   f 1
|1764>    1      1.000000000    0.000000000 2
|1765> end
|1766> Ti>    4.00000000000    9.76205894620    4.44164030394    1.98192821856
|1767> NewECP
|1768> N_core 0
|1769>   lmax f
|1770>   s 2
|1771>    1      0.860000       9.191690  2
|1772>    2      0.172000       0.008301  2
|1773>   p 2
|1774>    1      0.860000      17.997720  2
|1775>    2      0.172000      -0.032600  2
|1776>   d 2
|1777>    1      1.600000      -9.504310  2
|1778>    2      0.320000      -0.151370  2
|1779>   f 1
|1780>    1      1.000000000    0.000000000 2
|1781> end
|1782> Ti>    4.00000000000    9.76205894620   -4.44164030394    1.98192821856
|1783> NewECP
|1784> N_core 0
|1785>   lmax f
|1786>   s 2
|1787>    1      0.860000       9.191690  2
|1788>    2      0.172000       0.008301  2
|1789>   p 2
|1790>    1      0.860000      17.997720  2
|1791>    2      0.172000      -0.032600  2
|1792>   d 2
|1793>    1      1.600000      -9.504310  2
|1794>    2      0.320000      -0.151370  2
|1795>   f 1
|1796>    1      1.000000000    0.000000000 2
|1797> end
|1798> Ti>    4.00000000000   -9.76205894620   -4.44164030394    1.98192821856
|1799> NewECP
|1800> N_core 0
|1801>   lmax f
|1802>   s 2
|1803>    1      0.860000       9.191690  2
|1804>    2      0.172000       0.008301  2
|1805>   p 2
|1806>    1      0.860000      17.997720  2
|1807>    2      0.172000      -0.032600  2
|1808>   d 2
|1809>    1      1.600000      -9.504310  2
|1810>    2      0.320000      -0.151370  2
|1811>   f 1
|1812>    1      1.000000000    0.000000000 2
|1813> end
|1814> Ti>    4.00000000000    0.00000000000    0.00000000000  -11.03415037637
|1815> NewECP
|1816> N_core 0
|1817>   lmax f
|1818>   s 2
|1819>    1      0.860000       9.191690  2
|1820>    2      0.172000       0.008301  2
|1821>   p 2
|1822>    1      0.860000      17.997720  2
|1823>    2      0.172000      -0.032600  2
|1824>   d 2
|1825>    1      1.600000      -9.504310  2
|1826>    2      0.320000      -0.151370  2
|1827>   f 1
|1828>    1      1.000000000    0.000000000 2
|1829> end
|1830> Ti>    4.00000000000   -3.25401964873   10.36382737587    1.98192821856
|1831> NewECP
|1832> N_core 0
|1833>   lmax f
|1834>   s 2
|1835>    1      0.860000       9.191690  2
|1836>    2      0.172000       0.008301  2
|1837>   p 2
|1838>    1      0.860000      17.997720  2
|1839>    2      0.172000      -0.032600  2
|1840>   d 2
|1841>    1      1.600000      -9.504310  2
|1842>    2      0.320000      -0.151370  2
|1843>   f 1
|1844>    1      1.000000000    0.000000000 2
|1845> end
|1846> Ti>    4.00000000000    3.25401964873   10.36382737587    1.98192821856
|1847> NewECP
|1848> N_core 0
|1849>   lmax f
|1850>   s 2
|1851>    1      0.860000       9.191690  2
|1852>    2      0.172000       0.008301  2
|1853>   p 2
|1854>    1      0.860000      17.997720  2
|1855>    2      0.172000      -0.032600  2
|1856>   d 2
|1857>    1      1.600000      -9.504310  2
|1858>    2      0.320000      -0.151370  2
|1859>   f 1
|1860>    1      1.000000000    0.000000000 2
|1861> end
|1862> Ti>    4.00000000000    3.25401964873  -10.36382737587    1.98192821856
|1863> NewECP
|1864> N_core 0
|1865>   lmax f
|1866>   s 2
|1867>    1      0.860000       9.191690  2
|1868>    2      0.172000       0.008301  2
|1869>   p 2
|1870>    1      0.860000      17.997720  2
|1871>    2      0.172000      -0.032600  2
|1872>   d 2
|1873>    1      1.600000      -9.504310  2
|1874>    2      0.320000      -0.151370  2
|1875>   f 1
|1876>    1      1.000000000    0.000000000 2
|1877> end
|1878> Ti>    4.00000000000   -3.25401964873  -10.36382737587    1.98192821856
|1879> NewECP
|1880> N_core 0
|1881>   lmax f
|1882>   s 2
|1883>    1      0.860000       9.191690  2
|1884>    2      0.172000       0.008301  2
|1885>   p 2
|1886>    1      0.860000      17.997720  2
|1887>    2      0.172000      -0.032600  2
|1888>   d 2
|1889>    1      1.600000      -9.504310  2
|1890>    2      0.320000      -0.151370  2
|1891>   f 1
|1892>    1      1.000000000    0.000000000 2
|1893> end
|1894> Ti>    4.00000000000   -6.50803929747    4.44164030394   -7.78013072764
|1895> NewECP
|1896> N_core 0
|1897>   lmax f
|1898>   s 2
|1899>    1      0.860000       9.191690  2
|1900>    2      0.172000       0.008301  2
|1901>   p 2
|1902>    1      0.860000      17.997720  2
|1903>    2      0.172000      -0.032600  2
|1904>   d 2
|1905>    1      1.600000      -9.504310  2
|1906>    2      0.320000      -0.151370  2
|1907>   f 1
|1908>    1      1.000000000    0.000000000 2
|1909> end
|1910> Ti>    4.00000000000    6.50803929747    4.44164030394   -7.78013072764
|1911> NewECP
|1912> N_core 0
|1913>   lmax f
|1914>   s 2
|1915>    1      0.860000       9.191690  2
|1916>    2      0.172000       0.008301  2
|1917>   p 2
|1918>    1      0.860000      17.997720  2
|1919>    2      0.172000      -0.032600  2
|1920>   d 2
|1921>    1      1.600000      -9.504310  2
|1922>    2      0.320000      -0.151370  2
|1923>   f 1
|1924>    1      1.000000000    0.000000000 2
|1925> end
|1926> Ti>    4.00000000000    6.50803929747   -4.44164030394   -7.78013072764
|1927> NewECP
|1928> N_core 0
|1929>   lmax f
|1930>   s 2
|1931>    1      0.860000       9.191690  2
|1932>    2      0.172000       0.008301  2
|1933>   p 2
|1934>    1      0.860000      17.997720  2
|1935>    2      0.172000      -0.032600  2
|1936>   d 2
|1937>    1      1.600000      -9.504310  2
|1938>    2      0.320000      -0.151370  2
|1939>   f 1
|1940>    1      1.000000000    0.000000000 2
|1941> end
|1942> Ti>    4.00000000000   -6.50803929747   -4.44164030394   -7.78013072764
|1943> NewECP
|1944> N_core 0
|1945>   lmax f
|1946>   s 2
|1947>    1      0.860000       9.191690  2
|1948>    2      0.172000       0.008301  2
|1949>   p 2
|1950>    1      0.860000      17.997720  2
|1951>    2      0.172000      -0.032600  2
|1952>   d 2
[...]
498 Q      0.0000     4.0000     4.0000     0.0000     0.0000     0.0000
499 Q      0.0000     4.0000     4.0000     0.0000     0.0000     0.0000
500 Q      0.0000     4.0000     4.0000     0.0000     0.0000     0.0000
501 Q      0.0000     4.0000     4.0000     0.0000     0.0000     0.0000
502 Q      0.0000     4.0000     4.0000     0.0000     0.0000     0.0000
503 Q      0.0000     4.0000     4.0000     0.0000     0.0000     0.0000
504 Q      0.0000     4.0000     4.0000     0.0000     0.0000     0.0000
505 Q      0.0000     4.0000     4.0000     0.0000     0.0000     0.0000
506 Q      0.0000     4.0000     4.0000     0.0000     0.0000     0.0000
507 Q      0.0000     4.0000     4.0000     0.0000     0.0000     0.0000
508 Q      0.0000     4.0000     4.0000     0.0000     0.0000     0.0000
509 Q      0.0000     4.0000     4.0000     0.0000     0.0000     0.0000
510 Q      0.0000     4.0000     4.0000     0.0000     0.0000     0.0000
511 Q      0.0000     4.0000     4.0000     0.0000     0.0000     0.0000
512 Q      0.0000     4.0000     4.0000     0.0000     0.0000     0.0000
513 Q      0.0000     4.0000     4.0000     0.0000     0.0000     0.0000
514 Q      0.0000     4.0000     4.0000     0.0000     0.0000     0.0000
515 Q      0.0000     4.0000     4.0000     0.0000     0.0000     0.0000
516 Q      0.0000     4.0000     4.0000     0.0000     0.0000     0.0000
517 Q      0.0000     4.0000     4.0000     0.0000     0.0000     0.0000
518 Q      0.0000     4.0000     4.0000     0.0000     0.0000     0.0000
519 Q      0.0000     4.0000     4.0000     0.0000     0.0000     0.0000
520 Q      0.0000     4.0000     4.0000     0.0000     0.0000     0.0000
521 Q      0.0000     4.0000     4.0000     0.0000     0.0000     0.0000
522 Q      0.0000     4.0000     4.0000     0.0000     0.0000     0.0000
523 Q      0.0000     4.0000     4.0000     0.0000     0.0000     0.0000
524 Q      0.0000     4.0000     4.0000     0.0000     0.0000     0.0000
525 Q      0.0000     4.0000     4.0000     0.0000     0.0000     0.0000
526 Q      0.0000     4.0000     4.0000     0.0000     0.0000     0.0000
527 Q      0.0000     4.0000     4.0000     0.0000     0.0000     0.0000
528 Q      0.0000     4.0000     4.0000     0.0000     0.0000     0.0000
529 Q      0.0000     4.0000     4.0000     0.0000     0.0000     0.0000
530 Q      0.0000     4.0000     4.0000     0.0000     0.0000     0.0000
531 Q      0.0000     4.0000     4.0000     0.0000     0.0000     0.0000
532 Q      0.0000     4.0000     4.0000     0.0000     0.0000     0.0000
533 Q      0.0000     4.0000     4.0000     0.0000     0.0000     0.0000
534 Q      0.0000     4.0000     4.0000     0.0000     0.0000     0.0000
535 Q      0.0000     4.0000     4.0000     0.0000     0.0000     0.0000
536 Q      0.0000     4.0000     4.0000     0.0000     0.0000     0.0000
537 Q      0.0000     4.0000     4.0000     0.0000     0.0000     0.0000
538 Q      0.0000     4.0000     4.0000     0.0000     0.0000     0.0000
539 Q      0.0000     4.0000     4.0000     0.0000     0.0000     0.0000
540 Q      0.0000     4.0000     4.0000     0.0000     0.0000     0.0000
541 Q      0.0000     4.0000     4.0000     0.0000     0.0000     0.0000
542 Q      0.0000     4.0000     4.0000     0.0000     0.0000     0.0000
543 Q      0.0000     4.0000     4.0000     0.0000     0.0000     0.0000
544 Q      0.0000     4.0000     4.0000     0.0000     0.0000     0.0000
545 Q      0.0000     4.0000     4.0000     0.0000     0.0000     0.0000
546 Q      0.0000     4.0000     4.0000     0.0000     0.0000     0.0000
547 Q      0.0000     4.0000     4.0000     0.0000     0.0000     0.0000
548 Q      0.0000     4.0000     4.0000     0.0000     0.0000     0.0000
549 Q      0.0000     4.0000     4.0000     0.0000     0.0000     0.0000
550 Q      0.0000     4.0000     4.0000     0.0000     0.0000     0.0000
551 Q      0.0000     4.0000     4.0000     0.0000     0.0000     0.0000
552 Q      0.0000     4.0000     4.0000     0.0000     0.0000     0.0000
553 Q      0.0000     4.0000     4.0000     0.0000     0.0000     0.0000
554 Q      0.0000     4.0000     4.0000     0.0000     0.0000     0.0000
555 Q      0.0000     4.0000     4.0000     0.0000     0.0000     0.0000
556 Q      0.0000     4.0000     4.0000     0.0000     0.0000     0.0000
557 Q      0.0000     4.0000     4.0000     0.0000     0.0000     0.0000
558 Q      0.0000     4.0000     4.0000     0.0000     0.0000     0.0000
559 Q      0.0000     4.0000     4.0000     0.0000     0.0000     0.0000
560 Q      0.0000     4.0000     4.0000     0.0000     0.0000     0.0000
561 Q      0.0000     4.0000     4.0000     0.0000     0.0000     0.0000
562 Q      0.0000     4.0000     4.0000     0.0000     0.0000     0.0000
563 Q      0.0000     4.0000     4.0000     0.0000     0.0000     0.0000
564 Q      0.0000     4.0000     4.0000     0.0000     0.0000     0.0000
565 Q      0.0000     4.0000     4.0000     0.0000     0.0000     0.0000
566 Q      0.0000     4.0000     4.0000     0.0000     0.0000     0.0000
567 Q      0.0000     4.0000     4.0000     0.0000     0.0000     0.0000
568 Q      0.0000     4.0000     4.0000     0.0000     0.0000     0.0000
569 Q      0.0000     4.0000     4.0000     0.0000     0.0000     0.0000
570 Q      0.0000     4.0000     4.0000     0.0000     0.0000     0.0000
571 Q      0.0000     4.0000     4.0000     0.0000     0.0000     0.0000

  Mayer bond orders larger than 0.100000
B(  0-O ,  1-Ti) :   0.7093 B(  0-O ,  2-Ti) :   0.7093 B(  0-O ,  3-Ti) :   0.5168 
B(  1-Ti,  2-Ti) :   0.1624 B(  1-Ti,  4-O ) :   0.6636 B(  1-Ti,  9-O ) :   0.4243 
B(  1-Ti, 10-O ) :   0.4244 B(  1-Ti, 13-O ) :   0.5997 B(  1-Ti, 21-O ) :   0.4968 
B(  1-Ti, 41-Ti) :   0.1295 B(  2-Ti,  4-O ) :   0.6636 B(  2-Ti, 11-O ) :   0.4244 
B(  2-Ti, 12-O ) :   0.4245 B(  2-Ti, 14-O ) :   0.5997 B(  2-Ti, 22-O ) :   0.4968 
B(  2-Ti, 42-Ti) :   0.1295 B(  3-Ti,  5-O ) :   0.6147 B(  3-Ti,  6-O ) :   0.6147 
B(  3-Ti,  7-O ) :   0.6146 B(  3-Ti,  8-O ) :   0.6146 B(  3-Ti, 19-Ti) :   0.1498 
B(  3-Ti, 20-Ti) :   0.1498 B(  3-Ti, 23-O ) :   0.3824 B(  4-O , 32-Ti) :   0.6630 
B(  5-O , 19-Ti) :   0.7450 B(  5-O , 24-Ti) :   0.6450 B(  6-O , 19-Ti) :   0.7450 
B(  6-O , 25-Ti) :   0.6450 B(  7-O , 20-Ti) :   0.7450 B(  7-O , 26-Ti) :   0.6450 
B(  8-O , 20-Ti) :   0.7450 B(  8-O , 27-Ti) :   0.6450 B(  9-O , 17-Ti) :   0.6996 
B(  9-O , 33-Ti) :   0.8172 B( 10-O , 18-Ti) :   0.6996 B( 10-O , 34-Ti) :   0.8172 
B( 11-O , 18-Ti) :   0.6996 B( 11-O , 35-Ti) :   0.8172 B( 12-O , 17-Ti) :   0.6996 
B( 12-O , 36-Ti) :   0.8172 B( 13-O , 19-Ti) :   0.5438 B( 13-O , 41-Ti) :   0.8458 
B( 14-O , 20-Ti) :   0.5438 B( 14-O , 42-Ti) :   0.8458 B( 15-O , 17-Ti) :   0.5083 
B( 15-O , 24-Ti) :   0.7488 B( 15-O , 27-Ti) :   0.7488 B( 16-O , 18-Ti) :   0.5084 
B( 16-O , 25-Ti) :   0.7488 B( 16-O , 26-Ti) :   0.7488 B( 17-Ti, 39-O ) :   0.4026 
B( 17-Ti, 43-O ) :   0.4927 B( 17-Ti, 46-O ) :   0.4927 B( 18-Ti, 40-O ) :   0.4026 
B( 18-Ti, 44-O ) :   0.4927 B( 18-Ti, 45-O ) :   0.4927 B( 19-Ti, 51-O ) :   0.4670 
B( 19-Ti, 53-O ) :   0.5503 B( 19-Ti, 54-O ) :   0.5503 B( 19-Ti,141-O ) :  -0.1047 
B( 20-Ti, 52-O ) :   0.4670 B( 20-Ti, 55-O ) :   0.5503 B( 20-Ti, 56-O ) :   0.5503 
B( 20-Ti,142-O ) :  -0.1047 B( 21-O , 41-Ti) :   0.7591 B( 21-O , 61-Ti) :   0.7580 
B( 22-O , 42-Ti) :   0.7592 B( 22-O , 62-Ti) :   0.7580 B( 23-O , 63-Ti) :   0.7895 
B( 23-O , 64-Ti) :   0.7895 B( 24-Ti, 27-Ti) :   0.1128 B( 24-Ti, 28-O ) :   0.6514 
B( 24-Ti, 37-O ) :   0.6838 B( 24-Ti, 65-O ) :   0.5890 B( 24-Ti, 81-O ) :   0.4794 
B( 25-Ti, 26-Ti) :   0.1128 B( 25-Ti, 29-O ) :   0.6514 B( 25-Ti, 38-O ) :   0.6838 
B( 25-Ti, 66-O ) :   0.5889 B( 25-Ti, 82-O ) :   0.4794 B( 26-Ti, 30-O ) :   0.6515 
B( 26-Ti, 38-O ) :   0.6839 B( 26-Ti, 67-O ) :   0.5889 B( 26-Ti, 83-O ) :   0.4794 
B( 27-Ti, 31-O ) :   0.6515 B( 27-Ti, 37-O ) :   0.6838 B( 27-Ti, 68-O ) :   0.5890 
B( 27-Ti, 84-O ) :   0.4794 B( 28-O , 33-Ti) :   0.6510 B( 28-O , 85-Ti) :   0.7977 
B( 29-O , 34-Ti) :   0.6510 B( 29-O , 86-Ti) :   0.7977 B( 30-O , 35-Ti) :   0.6510 
B( 30-O , 87-Ti) :   0.7977 B( 31-O , 36-Ti) :   0.6510 B( 31-O , 88-Ti) :   0.7977 
B( 32-Ti, 47-O ) :   0.6133 B( 32-Ti, 48-O ) :   0.6133 B( 32-Ti, 49-O ) :   0.6132 
B( 32-Ti, 50-O ) :   0.6132 B( 32-Ti,108-O ) :   0.3631 B( 33-Ti, 43-O ) :   0.7509 
B( 33-Ti, 57-O ) :   0.6719 B( 33-Ti, 69-O ) :   0.5057 B( 33-Ti, 97-O ) :   0.5530 
B( 34-Ti, 44-O ) :   0.7509 B( 34-Ti, 58-O ) :   0.6719 B( 34-Ti, 70-O ) :   0.5056 
B( 34-Ti, 98-O ) :   0.5530 B( 35-Ti, 45-O ) :   0.7509 B( 35-Ti, 59-O ) :   0.6719 
B( 35-Ti, 71-O ) :   0.5057 B( 35-Ti, 99-O ) :   0.5530 B( 36-Ti, 46-O ) :   0.7509 
B( 36-Ti, 60-O ) :   0.6719 B( 36-Ti, 72-O ) :   0.5056 B( 36-Ti,100-O ) :   0.5529 
B( 37-O , 91-Ti) :   0.7589 B( 38-O , 92-Ti) :   0.7589 B( 39-O , 73-Ti) :   0.8093 
B( 39-O , 76-Ti) :   0.8094 B( 40-O , 74-Ti) :   0.8094 B( 40-O , 75-Ti) :   0.8094 
B( 41-Ti, 57-O ) :   0.5349 B( 41-Ti, 58-O ) :   0.5349 B( 41-Ti, 89-O ) :   0.5631 
B( 41-Ti, 95-O ) :   0.4182 B( 42-Ti, 59-O ) :   0.5349 B( 42-Ti, 60-O ) :   0.5349 
B( 42-Ti, 90-O ) :   0.5632 B( 42-Ti, 96-O ) :   0.4181 B( 43-O ,115-Ti) :   0.7897 
B( 44-O ,116-Ti) :   0.7897 B( 45-O ,117-Ti) :   0.7897 B( 46-O ,118-Ti) :   0.7897 
B( 47-O , 61-Ti) :   0.8187 B( 47-O , 73-Ti) :   0.7092 B( 48-O , 61-Ti) :   0.8187 
B( 48-O , 74-Ti) :   0.7092 B( 49-O , 62-Ti) :   0.8188 B( 49-O , 75-Ti) :   0.7092 
B( 50-O , 62-Ti) :   0.8188 B( 50-O , 76-Ti) :   0.7092 B( 51-O , 63-Ti) :   0.7423 
B( 51-O ,125-Ti) :   0.8666 B( 52-O , 64-Ti) :   0.7423 B( 52-O ,126-Ti) :   0.8666 
B( 53-O , 85-Ti) :   0.7327 B( 53-O , 93-Ti) :   0.8133 B( 54-O , 86-Ti) :   0.7327 
B( 54-O , 93-Ti) :   0.8133 B( 55-O , 87-Ti) :   0.7327 B( 55-O , 94-Ti) :   0.8133 
B( 56-O , 88-Ti) :   0.7327 B( 56-O , 94-Ti) :   0.8133 B( 57-O ,127-Ti) :   0.8627 
B( 58-O ,128-Ti) :   0.8627 B( 59-O ,129-Ti) :   0.8627 B( 60-O ,130-Ti) :   0.8627 
B( 61-Ti,101-O ) :   0.6506 B( 61-Ti,102-O ) :   0.6506 B( 61-Ti,161-O ) :   0.7062 
B( 62-Ti,103-O ) :   0.6506 B( 62-Ti,104-O ) :   0.6506 B( 62-Ti,162-O ) :   0.7062 
B( 63-Ti, 77-O ) :   0.6748 B( 63-Ti, 78-O ) :   0.6748 B( 63-Ti,105-O ) :   0.7756 
B( 63-Ti,155-O ) :   0.7899 B( 64-Ti, 79-O ) :   0.6748 B( 64-Ti, 80-O ) :   0.6748 
B( 64-Ti,105-O ) :   0.7756 B( 64-Ti,156-O ) :   0.7899 B( 65-O , 85-Ti) :   0.7839 
B( 65-O ,121-Ti) :   0.7425 B( 66-O , 86-Ti) :   0.7839 B( 66-O ,122-Ti) :   0.7425 
B( 67-O , 87-Ti) :   0.7839 B( 67-O ,123-Ti) :   0.7425 B( 68-O , 88-Ti) :   0.7839 
B( 68-O ,124-Ti) :   0.7425 B( 69-O , 73-Ti) :   0.7478 B( 69-O ,143-Ti) :   0.8639 
B( 70-O , 74-Ti) :   0.7478 B( 70-O ,144-Ti) :   0.8639 B( 71-O , 75-Ti) :   0.7478 
B( 71-O ,145-Ti) :   0.8639 B( 72-O , 76-Ti) :   0.7478 B( 72-O ,146-Ti) :   0.8639 
B( 73-Ti,109-O ) :   0.6956 B( 73-Ti,137-O ) :   0.6425 B( 73-Ti,163-O ) :   0.7571 
B( 74-Ti,110-O ) :   0.6956 B( 74-Ti,138-O ) :   0.6425 B( 74-Ti,164-O ) :   0.7571 
B( 75-Ti,110-O ) :   0.6956 B( 75-Ti,139-O ) :   0.6425 B( 75-Ti,165-O ) :   0.7571 
B( 76-Ti,109-O ) :   0.6956 B( 76-Ti,140-O ) :   0.6425 B( 76-Ti,166-O ) :   0.7571 
B( 77-O , 91-Ti) :   0.7357 B( 77-O ,121-Ti) :   0.7314 B( 78-O , 92-Ti) :   0.7357 
B( 78-O ,122-Ti) :   0.7314 B( 79-O , 92-Ti) :   0.7357 B( 79-O ,123-Ti) :   0.7314 
B( 80-O , 91-Ti) :   0.7357 B( 80-O ,124-Ti) :   0.7314 B( 81-O ,119-Ti) :   0.7401 
B( 81-O ,167-Ti) :   0.8529 B( 82-O ,120-Ti) :   0.7401 B( 82-O ,168-Ti) :   0.8529 
B( 83-O ,120-Ti) :   0.7401 B( 83-O ,169-Ti) :   0.8529 B( 84-O ,119-Ti) :   0.7401 
B( 84-O ,170-Ti) :   0.8529 B( 85-Ti,111-O ) :   0.6907 B( 85-Ti,151-O ) :   0.7614 
B( 85-Ti,173-O ) :   0.6512 B( 86-Ti,112-O ) :   0.6907 B( 86-Ti,152-O ) :   0.7614 
B( 86-Ti,174-O ) :   0.6512 B( 87-Ti,113-O ) :   0.6907 B( 87-Ti,153-O ) :   0.7614 
B( 87-Ti,175-O ) :   0.6512 B( 88-Ti,114-O ) :   0.6907 B( 88-Ti,154-O ) :   0.7614 
B( 88-Ti,176-O ) :   0.6512 B( 89-O , 93-Ti) :   0.6551 B( 89-O ,181-Ti) :   0.8741 
B( 90-O , 94-Ti) :   0.6551 B( 90-O ,182-Ti) :   0.8741 B( 91-Ti,133-O ) :   0.7349 
B( 91-Ti,136-O ) :   0.7348 B( 92-Ti,134-O ) :   0.7349 B( 92-Ti,135-O ) :   0.7349 
B( 93-Ti,141-O ) :   0.7581 B( 93-Ti,189-O ) :   0.7443 B( 93-Ti,190-O ) :   0.7443 
B( 94-Ti,142-O ) :   0.7581 B( 94-Ti,191-O ) :   0.7443 B( 94-Ti,192-O ) :   0.7443 
B( 95-O ,171-Ti) :   0.8070 B( 95-O ,181-Ti) :   0.7989 B( 96-O ,172-Ti) :   0.8070 
B( 96-O ,182-Ti) :   0.7989 B( 97-O ,127-Ti) :   0.7084 B( 97-O ,201-Ti) :   0.7683 
B( 98-O ,128-Ti) :   0.7084 B( 98-O ,202-Ti) :   0.7683 B( 99-O ,129-Ti) :   0.7084 
B( 99-O ,203-Ti) :   0.7683 B(100-O ,130-Ti) :   0.7084 B(100-O ,204-Ti) :   0.7683 
B(101-O ,143-Ti) :   0.6356 B(101-O ,171-Ti) :   0.8660 B(102-O ,144-Ti) :   0.6356 
B(102-O ,171-Ti) :   0.8660 B(103-O ,145-Ti) :   0.6356 B(103-O ,172-Ti) :   0.8660 
B(104-O ,146-Ti) :   0.6356 B(104-O ,172-Ti) :   0.8660 B(106-O ,115-Ti) :   0.7583 
B(106-O ,118-Ti) :   0.7583 B(106-O ,119-Ti) :   0.6358 B(107-O ,116-Ti) :   0.7583 
B(107-O ,117-Ti) :   0.7583 B(107-O ,120-Ti) :   0.6358 B(108-O ,197-Ti) :   0.8457 
B(108-O ,198-Ti) :   0.8457 B(109-O ,225-Ti) :   0.7514 B(110-O ,226-Ti) :   0.7514 
B(111-O ,127-Ti) :   0.6232 B(111-O ,221-Ti) :   0.8455 B(112-O ,128-Ti) :   0.6232 
B(112-O ,222-Ti) :   0.8455 B(113-O ,129-Ti) :   0.6232 B(113-O ,223-Ti) :   0.8455 
B(114-O ,130-Ti) :   0.6232 B(114-O ,224-Ti) :   0.8455 B(115-Ti,131-O ) :   0.6964 
B(115-Ti,157-O ) :   0.7053 B(115-Ti,183-O ) :   0.7019 B(116-Ti,132-O ) :   0.6964 
B(116-Ti,158-O ) :   0.7053 B(116-Ti,184-O ) :   0.7019 B(117-Ti,132-O ) :   0.6964 
B(117-Ti,159-O ) :   0.7053 B(117-Ti,185-O ) :   0.7020 B(118-Ti,131-O ) :   0.6964 
B(118-Ti,160-O ) :   0.7053 B(118-Ti,186-O ) :   0.7019 B(119-Ti,187-O ) :   0.6972 
B(119-Ti,205-O ) :   0.7848 B(119-Ti,208-O ) :   0.7848 B(120-Ti,188-O ) :   0.6972 
B(120-Ti,206-O ) :   0.7848 B(120-Ti,207-O ) :   0.7848 B(121-Ti,133-O ) :   0.7299 
B(121-Ti,147-O ) :   0.7618 B(121-Ti,217-O ) :   0.7974 B(122-Ti,134-O ) :   0.7299 
B(122-Ti,148-O ) :   0.7618 B(122-Ti,218-O ) :   0.7974 B(123-Ti,135-O ) :   0.7299 
B(123-Ti,149-O ) :   0.7618 B(123-Ti,219-O ) :   0.7974 B(124-Ti,136-O ) :   0.7299 
B(124-Ti,150-O ) :   0.7618 B(124-Ti,220-O ) :   0.7974 B(125-Ti,141-O ) :   0.7564 
B(125-Ti,147-O ) :   0.6863 B(125-Ti,148-O ) :   0.6863 B(125-Ti,155-O ) :   0.7727 
B(126-Ti,142-O ) :   0.7564 B(126-Ti,149-O ) :   0.6863 B(126-Ti,150-O ) :   0.6863 
B(126-Ti,156-O ) :   0.7727 B(127-Ti,177-O ) :   0.7277 B(127-Ti,193-O ) :   0.8036 
B(128-Ti,178-O ) :   0.7277 B(128-Ti,194-O ) :   0.8036 B(129-Ti,179-O ) :   0.7277 
B(129-Ti,195-O ) :   0.8036 B(130-Ti,180-O ) :   0.7277 B(130-Ti,196-O ) :   0.8036 
B(131-O ,199-Ti) :   0.7269 B(132-O ,200-Ti) :   0.7269 B(137-O ,199-Ti) :   0.8731 
B(138-O ,200-Ti) :   0.8731 B(139-O ,200-Ti) :   0.8731 B(140-O ,199-Ti) :   0.8731 
B(143-Ti,163-O ) :   0.7570 B(143-Ti,177-O ) :   0.8426 B(144-Ti,164-O ) :   0.7570 
B(144-Ti,178-O ) :   0.8426 B(145-Ti,165-O ) :   0.7570 B(145-Ti,179-O ) :   0.8426 
B(146-Ti,166-O ) :   0.7570 B(146-Ti,180-O ) :   0.8426 B(151-O ,167-Ti) :   0.7723 
B(152-O ,168-Ti) :   0.7723 B(153-O ,169-Ti) :   0.7723 B(154-O ,170-Ti) :   0.7723 
B(157-O ,167-Ti) :   0.5690 B(157-O ,201-Ti) :   0.8679 B(158-O ,168-Ti) :   0.5690 
B(158-O ,202-Ti) :   0.8679 B(159-O ,169-Ti) :   0.5690 B(159-O ,203-Ti) :   0.8679 
B(160-O ,170-Ti) :   0.5690 B(160-O ,204-Ti) :   0.8679 B(161-O ,197-Ti) :   0.7953 
B(162-O ,198-Ti) :   0.7953 B(167-Ti,205-O ) :   0.7577 B(167-Ti,213-O ) :   0.7465 
B(168-Ti,206-O ) :   0.7577 B(168-Ti,214-O ) :   0.7465 B(169-Ti,207-O ) :   0.7577 
B(169-Ti,215-O ) :   0.7465 B(170-Ti,208-O ) :   0.7577 B(170-Ti,216-O ) :   0.7465 
B(173-O ,221-Ti) :   0.8671 B(174-O ,222-Ti) :   0.8671 B(175-O ,223-Ti) :   0.8671 
B(176-O ,224-Ti) :   0.8671 B(181-Ti,193-O ) :   0.7651 B(181-Ti,194-O ) :   0.7651 
B(182-Ti,195-O ) :   0.7651 B(182-Ti,196-O ) :   0.7651 B(183-O ,201-Ti) :   0.8949 
B(184-O ,202-Ti) :   0.8949 B(185-O ,203-Ti) :   0.8949 B(186-O ,204-Ti) :   0.8949 
B(189-O ,221-Ti) :   0.7910 B(190-O ,222-Ti) :   0.7910 B(191-O ,223-Ti) :   0.7910 
B(192-O ,224-Ti) :   0.7910 B(197-Ti,209-O ) :   0.6328 B(197-Ti,210-O ) :   0.6328 
B(197-Ti,227-O ) :   0.8005 B(198-Ti,211-O ) :   0.6328 B(198-Ti,212-O ) :   0.6328 
B(198-Ti,227-O ) :   0.8005 B(209-O ,225-Ti) :   0.8675 B(210-O ,226-Ti) :   0.8675 
B(211-O ,226-Ti) :   0.8675 B(212-O ,225-Ti) :   0.8675 

-------
TIMINGS
-------

Total SCF time: 0 days 1 hours 8 min 39 sec 

Total time                  ....    4119.469 sec
Sum of individual times     ....    4018.262 sec  ( 97.5%)

Fock matrix formation       ....    3373.741 sec  ( 81.9%)
  XC integration            ....     606.263 sec  ( 18.0% of F)
    Basis function eval.    ....     121.720 sec  ( 20.1% of XC)
    Density eval.           ....     325.125 sec  ( 53.6% of XC)
    XC-Functional eval.     ....       6.225 sec  (  1.0% of XC)
    XC-Potential eval.      ....     101.381 sec  ( 16.7% of XC)
Diagonalization             ....     259.951 sec  (  6.3%)
Density matrix formation    ....      51.796 sec  (  1.3%)
Population analysis         ....      10.869 sec  (  0.3%)
Initial guess               ....      18.290 sec  (  0.4%)
Orbital Transformation      ....       0.000 sec  (  0.0%)
Orbital Orthonormalization  ....       0.000 sec  (  0.0%)
DIIS solution               ....     260.058 sec  (  6.3%)
Grid generation             ....      43.556 sec  (  1.1%)

Maximum memory used throughout the entire SCF-calculation: 2293.8 MB

-------------------------   --------------------
FINAL SINGLE POINT ENERGY   -115776.940881186543
-------------------------   --------------------


                            ***************************************
                            *     ORCA property calculations      *
                            ***************************************

                                    ---------------------
                                    Active property flags
                                    ---------------------
   (+) Dipole Moment


------------------------------------------------------------------------------
                       ORCA ELECTRIC PROPERTIES CALCULATION
------------------------------------------------------------------------------

Dipole Moment Calculation                       ... on
Quadrupole Moment Calculation                   ... off
Polarizability Calculation                      ... off
GBWName                                         ... orca.gbw
Electron density                                ... orca.scfp
The origin for moment calculation is the CENTER OF MASS  = ( 0.000000,  0.000000 -0.474324)

-------------
DIPOLE MOMENT
-------------
                                X             Y             Z
Electronic contribution:      0.00006       0.00019    -271.48931
Nuclear contribution   :      0.00000       0.00000    1080.60172
                        -----------------------------------------
Total Dipole Moment    :      0.00006       0.00019     809.11240
                        -----------------------------------------
Magnitude (a.u.)       :    809.11240
Magnitude (Debye)      :   2056.60029



--------------------
Rotational spectrum 
--------------------
 
Rotational constants in cm-1:     0.000103     0.000102     0.000098 
Rotational constants in MHz :     3.087501     3.071868     2.937546 

 Dipole components along the rotational axes: 
x,y,z [a.u.] :     0.000057     0.000189   809.112403 
x,y,z [Debye]:     0.000145     0.000481  2056.600287 

 

Timings for individual modules:

Sum of individual times         ...     6823.317 sec (= 113.722 min)
GTO integral calculation        ...     2700.310 sec (=  45.005 min)  39.6 %
SCF iterations                  ...     4123.007 sec (=  68.717 min)  60.4 %
                             ****ORCA TERMINATED NORMALLY****
TOTAL RUN TIME: 0 days 1 hours 53 minutes 54 seconds 862 msec
