 vasp.6.2.1 16May21 (build Oct 07 2021 14:09:27) complex                        
  
 executed on             LinuxIFC date 2021.10.11  15:48:42
 running on   76 total cores
 distrk:  each k-point on   76 cores,    1 groups
 distr:  one band on NCORE=  38 cores,    2 groups


--------------------------------------------------------------------------------------------------------


 INCAR:
   SYSTEM = MgO
   ISMEAR = 0
   SIGMA = 0.05
   EDIFF = 1E-5
   ALGO = Fast
   ISYM = 0
   GGA = PE
   IBRION = -1
   NSW = 0
   EDIFFG = -0.01
   ENCUT = 500
   PREC = Normal
   LASPH = .TRUE.
   LREAL = Auto
   ISPIN = 1
   NELM = 300
   NCORE = 38
   LWAVE = .FALSE.
   LCHARG = .FALSE.
   LORBIT = 11

 POTCAR:    PAW_PBE Mg_sv 12Apr2007               
 POTCAR:    PAW_PBE O 08Apr2002                   
 -----------------------------------------------------------------------------
|                                                                             |
|           W    W    AA    RRRRR   N    N  II  N    N   GGGG   !!!           |
|           W    W   A  A   R    R  NN   N  II  NN   N  G    G  !!!           |
|           W    W  A    A  R    R  N N  N  II  N N  N  G       !!!           |
|           W WW W  AAAAAA  RRRRR   N  N N  II  N  N N  G  GGG   !            |
|           WW  WW  A    A  R   R   N   NN  II  N   NN  G    G                |
|           W    W  A    A  R    R  N    N  II  N    N   GGGG   !!!           |
|                                                                             |
|     For optimal performance we recommend to set                             |
|       NCORE = 2 up to number-of-cores-per-socket                            |
|     NCORE specifies how many cores store one orbital (NPAR=cpu/NCORE).      |
|     This setting can greatly improve the performance of VASP for DFT.       |
|     The default, NCORE=1 might be grossly inefficient on modern             |
|     multi-core architectures or massively parallel machines. Do your        |
|     own testing! More info at https://www.vasp.at/wiki/index.php/NCORE      |
|     Unfortunately you need to use the default for GW and RPA                |
|     calculations (for HF NCORE is supported but not extensively tested      |
|     yet).                                                                   |
|                                                                             |
 -----------------------------------------------------------------------------

 POTCAR:    PAW_PBE Mg_sv 12Apr2007               
   SHA256 =  c031e1d7f73808198b463395d641520b61dff8900336e561361552d85f4fc16c Mg_sv/POTCAR          
   COPYR  = (c) Copyright 12Apr2007 Georg Kresse                                                    
   COPYR  = This file is part of the software VASP. Any use, copying, and all other rights are regul
   COPYR  = If you do not have a valid VASP license, you may not use, copy or distribute this file. 
   VRHFIN =Mg: p6s2                                                                                 
   LEXCH  = PE                                                                                      
   EATOM  =  1728.4457 eV,  127.0372 Ry                                                             
                                                                                                    
   TITEL  = PAW_PBE Mg_sv 12Apr2007                                                                 
   LULTRA =        F    use ultrasoft PP ?                                                          
   IUNSCR =        0    unscreen: 0-lin 1-nonlin 2-no                                               
   RPACOR =    0.000    partial core radius                                                         
   POMASS =   24.305; ZVAL   =   10.000    mass and valenz                                          
   RCORE  =    1.700    outmost cutoff radius                                                       
   RWIGS  =    1.800; RWIGS  =    0.953    wigner-seitz radius (au A)                               
   ENMAX  =  495.223; ENMIN  =  371.417 eV                                                          
   RCLOC  =    1.506    cutoff for local pot                                                        
   LCOR   =        T    correct aug charges                                                         
   LPAW   =        T    paw PP                                                                      
   EAUG   =  980.156                                                                                
   RMAX   =    1.743    core radius for proj-oper                                                   
   RAUG   =    1.300    factor for augmentation sphere                                              
   RDEP   =    1.781    radius for radial grids                                                     
   RDEPT  =    1.300    core radius for aug-charge                                                  
                                                                                                    
   Atomic configuration                                                                             
    5 entries                                                                                       
     n  l   j            E        occ.                                                              
     1  0  0.50     -1259.6230   2.0000                                                             
     2  0  0.50       -79.8442   2.0000                                                             
     3  0  0.50        -4.7055   2.0000                                                             
     2  1  1.50       -46.6121   6.0000                                                             
     3  2  1.50        -1.3606   0.0000                                                             
   Description                                                                                      
     l       E           TYP  RCUT    TYP  RCUT                                                     
     0    -79.8442259     23  1.200                                                                 
     0     -4.7054661     23  1.700                                                                 
     1    -46.6121068     23  1.500                                                                 
     1      6.8029130     23  1.500                                                                 
     2     -1.3605826     23  1.700                                                                 
  local pseudopotential read in
  atomic valenz-charges read in
  non local Contribution for L=           0  read in
    real space projection operators read in
  non local Contribution for L=           0  read in
    real space projection operators read in
  non local Contribution for L=           1  read in
    real space projection operators read in
  non local Contribution for L=           1  read in
    real space projection operators read in
  non local Contribution for L=           2  read in
    real space projection operators read in
    PAW grid and wavefunctions read in
 
   number of l-projection  operators is LMAX  =           5
   number of lm-projection operators is LMMAX =          13
 
 POTCAR:    PAW_PBE O 08Apr2002                   
   SHA256 =  818f92134a0a090dccd8ba1447fa70422a3b330e708bb4f08108d8ae51209ddf O/POTCAR              
   COPYR  = (c) Copyright 08Apr2002 Georg Kresse                                                    
   COPYR  = This file is part of the software VASP. Any use, copying, and all other rights are regul
   COPYR  = If you do not have a valid VASP license, you may not use, copy or distribute this file. 
   VRHFIN =O: s2p4                                                                                  
   LEXCH  = PE                                                                                      
   EATOM  =   432.3788 eV,   31.7789 Ry                                                             
                                                                                                    
   TITEL  = PAW_PBE O 08Apr2002                                                                     
   LULTRA =        F    use ultrasoft PP ?                                                          
   IUNSCR =        1    unscreen: 0-lin 1-nonlin 2-no                                               
   RPACOR =    1.200    partial core radius                                                         
   POMASS =   16.000; ZVAL   =    6.000    mass and valenz                                          
   RCORE  =    1.520    outmost cutoff radius                                                       
   RWIGS  =    1.550; RWIGS  =    0.820    wigner-seitz radius (au A)                               
   ENMAX  =  400.000; ENMIN  =  300.000 eV                                                          
   ICORE  =        2    local potential                                                             
   LCOR   =        T    correct aug charges                                                         
   LPAW   =        T    paw PP                                                                      
   EAUG   =  605.392                                                                                
   DEXC   =    0.000                                                                                
   RMAX   =    1.553    core radius for proj-oper                                                   
   RAUG   =    1.300    factor for augmentation sphere                                              
   RDEP   =    1.550    radius for radial grids                                                     
   RDEPT  =    1.329    core radius for aug-charge                                                  
                                                                                                    
   Atomic configuration                                                                             
    4 entries                                                                                       
     n  l   j            E        occ.                                                              
     1  0  0.50      -514.6923   2.0000                                                             
     2  0  0.50       -23.9615   2.0000                                                             
     2  1  0.50        -9.0305   4.0000                                                             
     3  2  1.50        -9.5241   0.0000                                                             
   Description                                                                                      
     l       E           TYP  RCUT    TYP  RCUT                                                     
     0    -23.9615318     23  1.200                                                                 
     0     -9.5240782     23  1.200                                                                 
     1     -9.0304911     23  1.520                                                                 
     1      8.1634956     23  1.520                                                                 
     2     -9.5240782      7  1.500                                                                 
  local pseudopotential read in
  partial core-charges read in
  partial kinetic energy density read in
  kinetic energy density of atom read in
  atomic valenz-charges read in
  non local Contribution for L=           0  read in
    real space projection operators read in
  non local Contribution for L=           0  read in
    real space projection operators read in
  non local Contribution for L=           1  read in
    real space projection operators read in
  non local Contribution for L=           1  read in
    real space projection operators read in
    PAW grid and wavefunctions read in
 
   number of l-projection  operators is LMAX  =           4
   number of lm-projection operators is LMMAX =           8
 
 Optimization of the real space projectors (new method)

 maximal supplied QI-value         = 22.11
 optimisation between [QCUT,QGAM] = [ 11.28, 22.77] = [ 35.61,145.23] Ry 
 Optimized for a Real-space Cutoff    1.16 Angstroem

   l    n(q)    QCUT    max X(q) W(low)/X(q) W(high)/X(q)  e(spline) 
   0      8    11.276     8.730    0.54E-04    0.73E-04    0.16E-07
   0      8    11.276     8.910    0.73E-04    0.10E-03    0.30E-07
   1      7    11.276     2.513    0.11E-03    0.16E-04    0.10E-06
   1      7    11.276     3.341    0.27E-03    0.22E-03    0.27E-06
   2      7    11.276     3.683    0.35E-03    0.35E-03    0.85E-07
 Optimization of the real space projectors (new method)

 maximal supplied QI-value         = 24.76
 optimisation between [QCUT,QGAM] = [ 11.39, 22.77] = [ 36.31,145.25] Ry 
 Optimized for a Real-space Cutoff    1.00 Angstroem

   l    n(q)    QCUT    max X(q) W(low)/X(q) W(high)/X(q)  e(spline) 
   0      7    11.387    20.381    0.39E-03    0.13E-02    0.15E-06
   0      7    11.387    15.268    0.42E-03    0.14E-02    0.17E-06
   1      6    11.387     5.964    0.41E-03    0.11E-02    0.17E-06
   1      6    11.387     5.382    0.39E-03    0.87E-03    0.15E-06
  PAW_PBE Mg_sv 12Apr2007               :
 energy of atom  1       EATOM=-1728.4457
 kinetic energy error for atom=    0.1108 (will be added to EATOM!!)
  PAW_PBE O 08Apr2002                   :
 energy of atom  2       EATOM= -432.3788
 kinetic energy error for atom=    0.0224 (will be added to EATOM!!)
 
 
 POSCAR: Mg  O
  positions in direct lattice
  velocities in cartesian coordinates
 exchange correlation table for  LEXCH =        8
   RHO(1)=    0.500       N(1)  =     2000
   RHO(2)=  100.500       N(2)  =     4000
 


--------------------------------------------------------------------------------------------------------


 ion  position               nearest neighbor table
   1  0.000  0.750  0.000-  33 2.10  35 2.10  36 2.10  39 2.10  44 2.10  49 2.10
   2  0.000  0.000  0.250-  34 2.10  35 2.10  36 2.10  40 2.10  43 2.10  50 2.10
   3  0.250  0.750  0.250-  33 2.10  34 2.10  35 2.10  37 2.10  42 2.10  51 2.10
   4  0.250  0.000  0.000-  33 2.10  34 2.10  36 2.10  38 2.10  41 2.10  52 2.10
   5  0.000  0.750  0.500-  35 2.10  37 2.10  39 2.10  40 2.10  48 2.10  53 2.10
   6  0.000  0.000  0.750-  36 2.10  38 2.10  39 2.10  40 2.10  47 2.10  54 2.10
   7  0.250  0.750  0.750-  33 2.10  37 2.10  38 2.10  39 2.10  46 2.10  55 2.10
   8  0.250  0.000  0.500-  34 2.10  37 2.10  38 2.10  40 2.10  45 2.10  56 2.10
   9  0.000  0.250  0.000-  36 2.10  41 2.10  43 2.10  44 2.10  47 2.10  57 2.10
  10  0.000  0.500  0.250-  35 2.10  42 2.10  43 2.10  44 2.10  48 2.10  58 2.10
  11  0.250  0.250  0.250-  34 2.10  41 2.10  42 2.10  43 2.10  45 2.10  59 2.10
  12  0.250  0.500  0.000-  33 2.10  41 2.10  42 2.10  44 2.10  46 2.10  60 2.10
  13  0.000  0.250  0.500-  40 2.10  43 2.10  45 2.10  47 2.10  48 2.10  61 2.10
  14  0.000  0.500  0.750-  39 2.10  44 2.10  46 2.10  47 2.10  48 2.10  62 2.10
  15  0.250  0.250  0.750-  38 2.10  41 2.10  45 2.10  46 2.10  47 2.10  63 2.10
  16  0.250  0.500  0.500-  37 2.10  42 2.10  45 2.10  46 2.10  48 2.10  64 2.10
  17  0.500  0.750  0.000-  33 2.10  49 2.10  51 2.10  52 2.10  55 2.10  60 2.10
  18  0.500  0.000  0.250-  34 2.10  50 2.10  51 2.10  52 2.10  56 2.10  59 2.10
  19  0.750  0.750  0.250-  35 2.10  49 2.10  50 2.10  51 2.10  53 2.10  58 2.10
  20  0.750  0.000  0.000-  36 2.10  49 2.10  50 2.10  52 2.10  54 2.10  57 2.10
  21  0.500  0.750  0.500-  37 2.10  51 2.10  53 2.10  55 2.10  56 2.10  64 2.10
  22  0.500  0.000  0.750-  38 2.10  52 2.10  54 2.10  55 2.10  56 2.10  63 2.10
  23  0.750  0.750  0.750-  39 2.10  49 2.10  53 2.10  54 2.10  55 2.10  62 2.10
  24  0.750  0.000  0.500-  40 2.10  50 2.10  53 2.10  54 2.10  56 2.10  61 2.10
  25  0.500  0.250  0.000-  41 2.10  52 2.10  57 2.10  59 2.10  60 2.10  63 2.10
  26  0.500  0.500  0.250-  42 2.10  51 2.10  58 2.10  59 2.10  60 2.10  64 2.10
  27  0.750  0.250  0.250-  43 2.10  50 2.10  57 2.10  58 2.10  59 2.10  61 2.10
  28  0.750  0.500  0.000-  44 2.10  49 2.10  57 2.10  58 2.10  60 2.10  62 2.10
  29  0.500  0.250  0.500-  45 2.10  56 2.10  59 2.10  61 2.10  63 2.10  64 2.10
  30  0.500  0.500  0.750-  46 2.10  55 2.10  60 2.10  62 2.10  63 2.10  64 2.10
  31  0.750  0.250  0.750-  47 2.10  54 2.10  57 2.10  61 2.10  62 2.10  63 2.10
  32  0.750  0.500  0.500-  48 2.10  53 2.10  58 2.10  61 2.10  62 2.10  64 2.10
  33  0.250  0.750  0.000-   1 2.10   3 2.10   4 2.10   7 2.10  12 2.10  17 2.10
  34  0.250  0.000  0.250-   2 2.10   3 2.10   4 2.10   8 2.10  11 2.10  18 2.10
  35  0.000  0.750  0.250-   1 2.10   2 2.10   3 2.10   5 2.10  10 2.10  19 2.10
  36  0.000  0.000  0.000-   1 2.10   2 2.10   4 2.10   6 2.10   9 2.10  20 2.10
  37  0.250  0.750  0.500-   3 2.10   5 2.10   7 2.10   8 2.10  16 2.10  21 2.10
  38  0.250  0.000  0.750-   4 2.10   6 2.10   7 2.10   8 2.10  15 2.10  22 2.10
  39  0.000  0.750  0.750-   1 2.10   5 2.10   6 2.10   7 2.10  14 2.10  23 2.10
  40  0.000  0.000  0.500-   2 2.10   5 2.10   6 2.10   8 2.10  13 2.10  24 2.10
  41  0.250  0.250  0.000-   4 2.10   9 2.10  11 2.10  12 2.10  15 2.10  25 2.10
  42  0.250  0.500  0.250-   3 2.10  10 2.10  11 2.10  12 2.10  16 2.10  26 2.10
  43  0.000  0.250  0.250-   2 2.10   9 2.10  10 2.10  11 2.10  13 2.10  27 2.10
  44  0.000  0.500  0.000-   1 2.10   9 2.10  10 2.10  12 2.10  14 2.10  28 2.10
  45  0.250  0.250  0.500-   8 2.10  11 2.10  13 2.10  15 2.10  16 2.10  29 2.10
  46  0.250  0.500  0.750-   7 2.10  12 2.10  14 2.10  15 2.10  16 2.10  30 2.10
  47  0.000  0.250  0.750-   6 2.10   9 2.10  13 2.10  14 2.10  15 2.10  31 2.10
  48  0.000  0.500  0.500-   5 2.10  10 2.10  13 2.10  14 2.10  16 2.10  32 2.10
  49  0.750  0.750  0.000-   1 2.10  17 2.10  19 2.10  20 2.10  23 2.10  28 2.10
  50  0.750  0.000  0.250-   2 2.10  18 2.10  19 2.10  20 2.10  24 2.10  27 2.10
  51  0.500  0.750  0.250-   3 2.10  17 2.10  18 2.10  19 2.10  21 2.10  26 2.10
  52  0.500  0.000  0.000-   4 2.10  17 2.10  18 2.10  20 2.10  22 2.10  25 2.10
  53  0.750  0.750  0.500-   5 2.10  19 2.10  21 2.10  23 2.10  24 2.10  32 2.10
  54  0.750  0.000  0.750-   6 2.10  20 2.10  22 2.10  23 2.10  24 2.10  31 2.10
  55  0.500  0.750  0.750-   7 2.10  17 2.10  21 2.10  22 2.10  23 2.10  30 2.10
  56  0.500  0.000  0.500-   8 2.10  18 2.10  21 2.10  22 2.10  24 2.10  29 2.10
  57  0.750  0.250  0.000-   9 2.10  20 2.10  25 2.10  27 2.10  28 2.10  31 2.10
  58  0.750  0.500  0.250-  10 2.10  19 2.10  26 2.10  27 2.10  28 2.10  32 2.10
  59  0.500  0.250  0.250-  11 2.10  18 2.10  25 2.10  26 2.10  27 2.10  29 2.10
  60  0.500  0.500  0.000-  12 2.10  17 2.10  25 2.10  26 2.10  28 2.10  30 2.10
  61  0.750  0.250  0.500-  13 2.10  24 2.10  27 2.10  29 2.10  31 2.10  32 2.10
  62  0.750  0.500  0.750-  14 2.10  23 2.10  28 2.10  30 2.10  31 2.10  32 2.10
  63  0.500  0.250  0.750-  15 2.10  22 2.10  25 2.10  29 2.10  30 2.10  31 2.10
  64  0.500  0.500  0.500-  16 2.10  21 2.10  26 2.10  29 2.10  30 2.10  32 2.10
 

IMPORTANT INFORMATION: All symmetrisations will be switched off!
NOSYMM: (Re-)initialisation of all symmetry stuff for point group C_1.


----------------------------------------------------------------------------------------

                                     Primitive cell                                     

  volume of cell :     595.4418

  direct lattice vectors                    reciprocal lattice vectors
     8.412913863  0.000000000  0.000000000     0.118864880  0.000000000  0.000000000
     0.000000000  8.412913863  0.000000000     0.000000000  0.118864880  0.000000000
     0.000000000  0.000000000  8.412913863     0.000000000  0.000000000  0.118864880

  length of vectors
     8.412913863  8.412913863  8.412913863     0.118864880  0.118864880  0.118864880

  position of ions in fractional coordinates (direct lattice)
     0.000000000  0.750000000  0.000000000
     0.000000000  0.000000000  0.250000000
     0.250000000  0.750000000  0.250000000
     0.250000000  0.000000000  0.000000000
     0.000000000  0.750000000  0.500000000
     0.000000000  0.000000000  0.750000000
     0.250000000  0.750000000  0.750000000
     0.250000000  0.000000000  0.500000000
     0.000000000  0.250000000  0.000000000
     0.000000000  0.500000000  0.250000000
     0.250000000  0.250000000  0.250000000
     0.250000000  0.500000000  0.000000000
     0.000000000  0.250000000  0.500000000
     0.000000000  0.500000000  0.750000000
     0.250000000  0.250000000  0.750000000
     0.250000000  0.500000000  0.500000000
     0.500000000  0.750000000  0.000000000
     0.500000000  0.000000000  0.250000000
     0.750000000  0.750000000  0.250000000
     0.750000000  0.000000000  0.000000000
     0.500000000  0.750000000  0.500000000
     0.500000000  0.000000000  0.750000000
     0.750000000  0.750000000  0.750000000
     0.750000000  0.000000000  0.500000000
     0.500000000  0.250000000  0.000000000
     0.500000000  0.500000000  0.250000000
     0.750000000  0.250000000  0.250000000
     0.750000000  0.500000000  0.000000000
     0.500000000  0.250000000  0.500000000
     0.500000000  0.500000000  0.750000000
     0.750000000  0.250000000  0.750000000
     0.750000000  0.500000000  0.500000000
     0.250000000  0.750000000  0.000000000
     0.250000000  0.000000000  0.250000000
     0.000000000  0.750000000  0.250000000
     0.000000000  0.000000000  0.000000000
     0.250000000  0.750000000  0.500000000
     0.250000000  0.000000000  0.750000000
     0.000000000  0.750000000  0.750000000
     0.000000000  0.000000000  0.500000000
     0.250000000  0.250000000  0.000000000
     0.250000000  0.500000000  0.250000000
     0.000000000  0.250000000  0.250000000
     0.000000000  0.500000000  0.000000000
     0.250000000  0.250000000  0.500000000
     0.250000000  0.500000000  0.750000000
     0.000000000  0.250000000  0.750000000
     0.000000000  0.500000000  0.500000000
     0.750000000  0.750000000  0.000000000
     0.750000000  0.000000000  0.250000000
     0.500000000  0.750000000  0.250000000
     0.500000000  0.000000000  0.000000000
     0.750000000  0.750000000  0.500000000
     0.750000000  0.000000000  0.750000000
     0.500000000  0.750000000  0.750000000
     0.500000000  0.000000000  0.500000000
     0.750000000  0.250000000  0.000000000
     0.750000000  0.500000000  0.250000000
     0.500000000  0.250000000  0.250000000
     0.500000000  0.500000000  0.000000000
     0.750000000  0.250000000  0.500000000
     0.750000000  0.500000000  0.750000000
     0.500000000  0.250000000  0.750000000
     0.500000000  0.500000000  0.500000000

  ion indices of the primitive-cell ions
   primitive index   ion index
                 1           1
                 2           2
                 3           3
                 4           4
                 5           5
                 6           6
                 7           7
                 8           8
                 9           9
                10          10
                11          11
                12          12
                13          13
                14          14
                15          15
                16          16
                17          17
                18          18
                19          19
                20          20
                21          21
                22          22
                23          23
                24          24
                25          25
                26          26
                27          27
                28          28
                29          29
                30          30
                31          31
                32          32
                33          33
                34          34
                35          35
                36          36
                37          37
                38          38
                39          39
                40          40
                41          41
                42          42
                43          43
                44          44
                45          45
                46          46
                47          47
                48          48
                49          49
                50          50
                51          51
                52          52
                53          53
                54          54
                55          55
                56          56
                57          57
                58          58
                59          59
                60          60
                61          61
                62          62
                63          63
                64          64

----------------------------------------------------------------------------------------

 
 
 KPOINTS: pymatgen v2020.8.13 with grid density = 

Automatic generation of k-mesh.
 Grid dimensions read from file:
 generate k-points for:    2    2    2

 Generating k-lattice:

  Cartesian coordinates                     Fractional coordinates (reciprocal lattice)
     0.059432440  0.000000000  0.000000000     0.500000000  0.000000000  0.000000000
     0.000000000  0.059432440  0.000000000     0.000000000  0.500000000  0.000000000
     0.000000000  0.000000000  0.059432440     0.000000000  0.000000000  0.500000000

  Length of vectors
     0.059432440  0.059432440  0.059432440

  Shift w.r.t. Gamma in fractional coordinates (k-lattice)
     0.000000000  0.000000000  0.000000000

 
 Subroutine IBZKPT returns following result:
 ===========================================
 
 Found      8 irreducible k-points:
 
 Following reciprocal coordinates:
            Coordinates               Weight
  0.000000  0.000000  0.000000      1.000000
  0.500000  0.000000  0.000000      1.000000
  0.000000  0.500000  0.000000      1.000000
  0.000000  0.000000  0.500000      1.000000
  0.500000  0.500000  0.000000      1.000000
  0.000000  0.500000  0.500000      1.000000
  0.500000  0.000000  0.500000      1.000000
  0.500000  0.500000  0.500000      1.000000
 
 Following cartesian coordinates:
            Coordinates               Weight
  0.000000  0.000000  0.000000      1.000000
  0.059432  0.000000  0.000000      1.000000
  0.000000  0.059432  0.000000      1.000000
  0.000000  0.000000  0.059432      1.000000
  0.059432  0.059432  0.000000      1.000000
  0.000000  0.059432  0.059432      1.000000
  0.059432  0.000000  0.059432      1.000000
  0.059432  0.059432  0.059432      1.000000
 


--------------------------------------------------------------------------------------------------------




 Dimension of arrays:
   k-points           NKPTS =      8   k-points in BZ     NKDIM =      8   number of bands    NBANDS=    308
   number of dos      NEDOS =    301   number of ions     NIONS =     64
   non local maximal  LDIM  =      5   non local SUM 2l+1 LMDIM =     13
   total plane-waves  NPLWV = 110592
   max r-space proj   IRMAX =   1276   max aug-charges    IRDMAX=   2692
   dimension x,y,z NGX =    48 NGY =   48 NGZ =   48
   dimension x,y,z NGXF=    96 NGYF=   96 NGZF=   96
   support grid    NGXF=    96 NGYF=   96 NGZF=   96
   ions per type =              32  32
   NGX,Y,Z   is equivalent  to a cutoff of   9.49,  9.49,  9.49 a.u.
   NGXF,Y,Z  is equivalent  to a cutoff of  18.97, 18.97, 18.97 a.u.

 SYSTEM =  MgO                                     
 POSCAR =  Mg  O                                   

 Startparameter for this run:
   NWRITE =      2    write-flag & timer
   PREC   = normal    normal or accurate (medium, high low for compatibility)
   ISTART =      0    job   : 0-new  1-cont  2-samecut
   ICHARG =      2    charge: 1-file 2-atom 10-const
   ISPIN  =      1    spin polarized calculation?
   LNONCOLLINEAR =      F non collinear calculations
   LSORBIT =      F    spin-orbit coupling
   INIWAV =      1    electr: 0-lowe 1-rand  2-diag
   LASPH  =      T    aspherical Exc in radial PAW
 Electronic Relaxation 1
   ENCUT  =  500.0 eV  36.75 Ry    6.06 a.u.  15.34 15.34 15.34*2*pi/ulx,y,z
   ENINI  =  500.0     initial cutoff
   ENAUG  =  980.2 eV  augmentation charge cutoff
   NELM   =    300;   NELMIN=  2; NELMDL=  0     # of ELM steps 
   EDIFF  = 0.1E-04   stopping-criterion for ELM
   LREAL  =      T    real-space projection
   NLSPLINE    = F    spline interpolate recip. space projectors
   LCOMPAT=      F    compatible to vasp.4.4
   GGA_COMPAT  = T    GGA compatible to vasp.4.4-vasp.4.6
   LMAXPAW     = -100 max onsite density
   LMAXMIX     =    2 max onsite mixed and CHGCAR
   VOSKOWN=      0    Vosko Wilk Nusair interpolation
   ROPT   =   -0.00050  -0.00050
 Ionic relaxation
   EDIFFG = -.1E-01   stopping-criterion for IOM
   NSW    =      0    number of steps for IOM
   NBLOCK =      1;   KBLOCK =      1    inner block; outer block 
   IBRION =     -1    ionic relax: 0-MD 1-quasi-New 2-CG
   NFREE  =      0    steps in history (QN), initial steepest desc. (CG)
   ISIF   =      2    stress and relaxation
   IWAVPR =     10    prediction:  0-non 1-charg 2-wave 3-comb
   ISYM   =      0    0-nonsym 1-usesym 2-fastsym
   LCORR  =      T    Harris-Foulkes like correction to forces

   POTIM  = 0.5000    time-step for ionic-motion
   TEIN   =    0.0    initial temperature
   TEBEG  =    0.0;   TEEND  =   0.0 temperature during run
   SMASS  =  -3.00    Nose mass-parameter (am)
   estimated Nose-frequenzy (Omega)   =  0.10E-29 period in steps = 0.13E+47 mass=  -0.162E-26a.u.
   SCALEE = 1.0000    scale energy and forces
   NPACO  =    256;   APACO  = 16.0  distance and # of slots for P.C.
   PSTRESS=    0.0 pullay stress

  Mass of Ions in am
   POMASS =  24.30 16.00
  Ionic Valenz
   ZVAL   =  10.00  6.00
  Atomic Wigner-Seitz radii
   RWIGS  =  -1.00 -1.00
  virtual crystal weights 
   VCA    =   1.00  1.00
   NELECT =     512.0000    total number of electrons
   NUPDOWN=      -1.0000    fix difference up-down

 DOS related values:
   EMIN   =  10.00;   EMAX   =-10.00  energy-range for DOS
   EFERMI =   0.00
   ISMEAR =     0;   SIGMA  =   0.05  broadening in eV -4-tet -1-fermi 0-gaus

 Electronic relaxation 2 (details)
   IALGO  =     68    algorithm
   LDIAG  =      T    sub-space diagonalisation (order eigenvalues)
   LSUBROT=      F    optimize rotation matrix (better conditioning)
   TURBO    =      0    0=normal 1=particle mesh
   IRESTART =      0    0=no restart 2=restart with 2 vectors
   NREBOOT  =      0    no. of reboots
   NMIN     =      0    reboot dimension
   EREF     =   0.00    reference energy to select bands
   IMIX   =      4    mixing-type and parameters
     AMIX     =   0.40;   BMIX     =  1.00
     AMIX_MAG =   1.60;   BMIX_MAG =  1.00
     AMIN     =   0.10
     WC   =   100.;   INIMIX=   1;  MIXPRE=   1;  MAXMIX= -45

 Intra band minimization:
   WEIMIN = 0.0000     energy-eigenvalue tresh-hold
   EBREAK =  0.81E-08  absolut break condition
   DEPER  =   0.30     relativ break condition  

   TIME   =   0.40     timestep for ELM

  volume/ion in A,a.u.               =       9.30        62.78
  Fermi-wavevector in a.u.,A,eV,Ry     =   1.556748  2.941828 32.973243  2.423465
  Thomas-Fermi vector in A             =   2.660499
 
 Write flags
   LWAVE        =      F    write WAVECAR
   LDOWNSAMPLE  =      F    k-point downsampling of WAVECAR
   LCHARG       =      F    write CHGCAR
   LVTOT        =      F    write LOCPOT, total local potential
   LVHAR        =      F    write LOCPOT, Hartree potential only
   LELF         =      F    write electronic localiz. function (ELF)
   LORBIT       =     11    0 simple, 1 ext, 2 COOP (PROOUT), +10 PAW based schemes


 Dipole corrections
   LMONO  =      F    monopole corrections only (constant potential shift)
   LDIPOL =      F    correct potential (dipole corrections)
   IDIPOL =      0    1-x, 2-y, 3-z, 4-all directions 
   EPSILON=  1.0000000 bulk dielectric constant

 Exchange correlation treatment:
   GGA     =    PE    GGA type
   LEXCH   =     8    internal setting for exchange type
   VOSKOWN=      0    Vosko Wilk Nusair interpolation
   LHFCALC =     F    Hartree Fock is set to
   LHFONE  =     F    Hartree Fock one center treatment
   AEXX    =    0.0000 exact exchange contribution

 Linear response parameters
   LEPSILON=     F    determine dielectric tensor
   LRPA    =     F    only Hartree local field effects (RPA)
   LNABLA  =     F    use nabla operator in PAW spheres
   LVEL    =     F    velocity operator in full k-point grid
   LINTERFAST=   F  fast interpolation
   KINTER  =     0    interpolate to denser k-point grid
   CSHIFT  =0.1000    complex shift for real part using Kramers Kronig
   OMEGAMAX=  -1.0    maximum frequency
   DEG_THRESHOLD= 0.2000000E-02 threshold for treating states as degnerate
   RTIME   =   -0.100 relaxation time in fs
  (WPLASMAI=    0.000 imaginary part of plasma frequency in eV, 0.658/RTIME)
   DFIELD  = 0.0000000 0.0000000 0.0000000 field for delta impulse in time
 
 Orbital magnetization related:
   ORBITALMAG=     F  switch on orbital magnetization
   LCHIMAG   =     F  perturbation theory with respect to B field
   DQ        =  0.001000  dq finite difference perturbation B field
   LLRAUG    =     F  two centre corrections for induced B field



--------------------------------------------------------------------------------------------------------


 Static calculation
 charge density and potential will be updated during run
 non-spin polarized calculation
 RMM-DIIS sequential band-by-band and
  variant of blocked Davidson during initial phase
 perform sub-space diagonalisation
    before iterative eigenvector-optimisation
 modified Broyden-mixing scheme, WC =      100.0
 initial mixing is a Kerker type mixing with AMIX =  0.4000 and BMIX =      1.0000
 Hartree-type preconditioning will be used
 using additional bands           52
 real space projection scheme for non local part
 use partial core corrections
 calculate Harris-corrections to forces 
   (improved forces if not selfconsistent)
 use gradient corrections 
 use of overlap-Matrix (Vanderbilt PP)
 Gauss-broadening in eV      SIGMA  =   0.05


--------------------------------------------------------------------------------------------------------


  energy-cutoff  :      500.00
  volume of cell :      595.44
      direct lattice vectors                 reciprocal lattice vectors
     8.412913863  0.000000000  0.000000000     0.118864880  0.000000000  0.000000000
     0.000000000  8.412913863  0.000000000     0.000000000  0.118864880  0.000000000
     0.000000000  0.000000000  8.412913863     0.000000000  0.000000000  0.118864880

  length of vectors
     8.412913863  8.412913863  8.412913863     0.118864880  0.118864880  0.118864880


 
 k-points in units of 2pi/SCALE and weight: pymatgen v2020.8.13 with grid density = 
   0.00000000  0.00000000  0.00000000       0.125
   0.05943244  0.00000000  0.00000000       0.125
   0.00000000  0.05943244  0.00000000       0.125
   0.00000000  0.00000000  0.05943244       0.125
   0.05943244  0.05943244  0.00000000       0.125
   0.00000000  0.05943244  0.05943244       0.125
   0.05943244  0.00000000  0.05943244       0.125
   0.05943244  0.05943244  0.05943244       0.125
 
 k-points in reciprocal lattice and weights: pymatgen v2020.8.13 with grid density = 
   0.00000000  0.00000000  0.00000000       0.125
   0.50000000  0.00000000  0.00000000       0.125
   0.00000000  0.50000000  0.00000000       0.125
   0.00000000  0.00000000  0.50000000       0.125
   0.50000000  0.50000000  0.00000000       0.125
   0.00000000  0.50000000  0.50000000       0.125
   0.50000000  0.00000000  0.50000000       0.125
   0.50000000  0.50000000  0.50000000       0.125
 
 position of ions in fractional coordinates (direct lattice) 
   0.00000000  0.75000000  0.00000000
   0.00000000  0.00000000  0.25000000
   0.25000000  0.75000000  0.25000000
   0.25000000  0.00000000  0.00000000
   0.00000000  0.75000000  0.50000000
   0.00000000  0.00000000  0.75000000
   0.25000000  0.75000000  0.75000000
   0.25000000  0.00000000  0.50000000
   0.00000000  0.25000000  0.00000000
   0.00000000  0.50000000  0.25000000
   0.25000000  0.25000000  0.25000000
   0.25000000  0.50000000  0.00000000
   0.00000000  0.25000000  0.50000000
   0.00000000  0.50000000  0.75000000
   0.25000000  0.25000000  0.75000000
   0.25000000  0.50000000  0.50000000
   0.50000000  0.75000000  0.00000000
   0.50000000  0.00000000  0.25000000
   0.75000000  0.75000000  0.25000000
   0.75000000  0.00000000  0.00000000
   0.50000000  0.75000000  0.50000000
   0.50000000  0.00000000  0.75000000
   0.75000000  0.75000000  0.75000000
   0.75000000  0.00000000  0.50000000
   0.50000000  0.25000000  0.00000000
   0.50000000  0.50000000  0.25000000
   0.75000000  0.25000000  0.25000000
   0.75000000  0.50000000  0.00000000
   0.50000000  0.25000000  0.50000000
   0.50000000  0.50000000  0.75000000
   0.75000000  0.25000000  0.75000000
   0.75000000  0.50000000  0.50000000
   0.25000000  0.75000000  0.00000000
   0.25000000  0.00000000  0.25000000
   0.00000000  0.75000000  0.25000000
   0.00000000  0.00000000  0.00000000
   0.25000000  0.75000000  0.50000000
   0.25000000  0.00000000  0.75000000
   0.00000000  0.75000000  0.75000000
   0.00000000  0.00000000  0.50000000
   0.25000000  0.25000000  0.00000000
   0.25000000  0.50000000  0.25000000
   0.00000000  0.25000000  0.25000000
   0.00000000  0.50000000  0.00000000
   0.25000000  0.25000000  0.50000000
   0.25000000  0.50000000  0.75000000
   0.00000000  0.25000000  0.75000000
   0.00000000  0.50000000  0.50000000
   0.75000000  0.75000000  0.00000000
   0.75000000  0.00000000  0.25000000
   0.50000000  0.75000000  0.25000000
   0.50000000  0.00000000  0.00000000
   0.75000000  0.75000000  0.50000000
   0.75000000  0.00000000  0.75000000
   0.50000000  0.75000000  0.75000000
   0.50000000  0.00000000  0.50000000
   0.75000000  0.25000000  0.00000000
   0.75000000  0.50000000  0.25000000
   0.50000000  0.25000000  0.25000000
   0.50000000  0.50000000  0.00000000
   0.75000000  0.25000000  0.50000000
   0.75000000  0.50000000  0.75000000
   0.50000000  0.25000000  0.75000000
   0.50000000  0.50000000  0.50000000
 
 position of ions in cartesian coordinates  (Angst):
   0.00000000  6.30968540  0.00000000
   0.00000000  0.00000000  2.10322847
   2.10322847  6.30968540  2.10322847
   2.10322847  0.00000000  0.00000000
   0.00000000  6.30968540  4.20645693
   0.00000000  0.00000000  6.30968540
   2.10322847  6.30968540  6.30968540
   2.10322847  0.00000000  4.20645693
   0.00000000  2.10322847  0.00000000
   0.00000000  4.20645693  2.10322847
   2.10322847  2.10322847  2.10322847
   2.10322847  4.20645693  0.00000000
   0.00000000  2.10322847  4.20645693
   0.00000000  4.20645693  6.30968540
   2.10322847  2.10322847  6.30968540
   2.10322847  4.20645693  4.20645693
   4.20645693  6.30968540  0.00000000
   4.20645693  0.00000000  2.10322847
   6.30968540  6.30968540  2.10322847
   6.30968540  0.00000000  0.00000000
   4.20645693  6.30968540  4.20645693
   4.20645693  0.00000000  6.30968540
   6.30968540  6.30968540  6.30968540
   6.30968540  0.00000000  4.20645693
   4.20645693  2.10322847  0.00000000
   4.20645693  4.20645693  2.10322847
   6.30968540  2.10322847  2.10322847
   6.30968540  4.20645693  0.00000000
   4.20645693  2.10322847  4.20645693
   4.20645693  4.20645693  6.30968540
   6.30968540  2.10322847  6.30968540
   6.30968540  4.20645693  4.20645693
   2.10322847  6.30968540  0.00000000
   2.10322847  0.00000000  2.10322847
   0.00000000  6.30968540  2.10322847
   0.00000000  0.00000000  0.00000000
   2.10322847  6.30968540  4.20645693
   2.10322847  0.00000000  6.30968540
   0.00000000  6.30968540  6.30968540
   0.00000000  0.00000000  4.20645693
   2.10322847  2.10322847  0.00000000
   2.10322847  4.20645693  2.10322847
   0.00000000  2.10322847  2.10322847
   0.00000000  4.20645693  0.00000000
   2.10322847  2.10322847  4.20645693
   2.10322847  4.20645693  6.30968540
   0.00000000  2.10322847  6.30968540
   0.00000000  4.20645693  4.20645693
   6.30968540  6.30968540  0.00000000
   6.30968540  0.00000000  2.10322847
   4.20645693  6.30968540  2.10322847
   4.20645693  0.00000000  0.00000000
   6.30968540  6.30968540  4.20645693
   6.30968540  0.00000000  6.30968540
   4.20645693  6.30968540  6.30968540
   4.20645693  0.00000000  4.20645693
   6.30968540  2.10322847  0.00000000
   6.30968540  4.20645693  2.10322847
   4.20645693  2.10322847  2.10322847
   4.20645693  4.20645693  0.00000000
   6.30968540  2.10322847  4.20645693
   6.30968540  4.20645693  6.30968540
   4.20645693  2.10322847  6.30968540
   4.20645693  4.20645693  4.20645693
 


--------------------------------------------------------------------------------------------------------


 k-point   1 :   0.0000 0.0000 0.0000  plane waves:   15203
 k-point   2 :   0.5000 0.0000 0.0000  plane waves:   15190
 k-point   3 :   0.0000 0.5000 0.0000  plane waves:   15190
 k-point   4 :   0.0000 0.0000 0.5000  plane waves:   15190
 k-point   5 :   0.5000 0.5000 0.0000  plane waves:   15100
 k-point   6 :   0.0000 0.5000 0.5000  plane waves:   15100
 k-point   7 :   0.5000 0.0000 0.5000  plane waves:   15100
 k-point   8 :   0.5000 0.5000 0.5000  plane waves:   15192

 maximum and minimum number of plane-waves per node :       425      374

 maximum number of plane-waves:     15203
 maximum index in each direction: 
   IXMAX=   15   IYMAX=   15   IZMAX=   15
   IXMIN=  -15   IYMIN=  -15   IZMIN=  -15


 real space projection operators:
  total allocation   :       5444.25 KBytes
  max/ min on nodes  :        304.62         34.12


 parallel 3D FFT for wavefunctions:
    minimum data exchange during FFTs selected (reduces bandwidth)
 parallel 3D FFT for charge:
    minimum data exchange during FFTs selected (reduces bandwidth)


 total amount of memory used by VASP MPI-rank0    42116. kBytes
=======================================================================

   base      :      30000. kBytes
   nonlr-proj:       1740. kBytes
   fftplans  :        730. kBytes
   grid      :       1233. kBytes
   one-center:         16. kBytes
   wavefun   :       8397. kBytes
 
     INWAV:  cpu time    0.0000: real time    0.0000
 Broyden mixing: mesh for mixing (old mesh)
   NGX = 31   NGY = 31   NGZ = 31
  (NGX  = 96   NGY  = 96   NGZ  = 96)
  gives a total of  29791 points

 initial charge density was supplied:
 charge density of overlapping atoms calculated
 number of electron     512.0000000 magnetization 
 keeping initial charge density in first step


--------------------------------------------------------------------------------------------------------


 Maximum index for non-local projection operator          137
 Maximum index for augmentation-charges          221 (set IRDMAX)


--------------------------------------------------------------------------------------------------------


 First call to EWALD:  gamma=   0.211
 Maximum number of real-space cells 3x 3x 3
 Maximum number of reciprocal cells 3x 3x 3

    FEWALD:  cpu time    0.0015: real time    0.0015


--------------------------------------- Iteration      1(   1)  ---------------------------------------


    POTLOK:  cpu time    0.0212: real time    0.0295
    SETDIJ:  cpu time    0.0961: real time    0.1017
     EDDAV:  cpu time    1.9802: real time    2.0093
       DOS:  cpu time    0.0044: real time    0.0077
    --------------------------------------------
      LOOP:  cpu time    2.1020: real time    2.1482

 eigenvalue-minimisations  :  5040
 total energy-change (2. order) : 0.7259702E+04  (-0.3228899E+05)
 number of electron     512.0000000 magnetization 
 augmentation part      512.0000000 magnetization 

 Free energy of the ion-electron system (eV)
  ---------------------------------------------------
  alpha Z        PSCENC =      2633.01217485
  Ewald energy   TEWEN  =    -41315.12574500
  -Hartree energ DENC   =    -18713.15354016
  -exchange      EXHF   =         0.00000000
  -V(xc)+E(xc)   XCENC  =      3021.35613061
  PAW double counting   =     49162.60687518   -52066.79395667
  entropy T*S    EENTRO =        -0.01049920
  eigenvalues    EBANDS =     -4604.31245844
  atomic energy  EATOM  =     69142.12264788
  Solvation  Ediel_sol  =         0.00000000
  ---------------------------------------------------
  free energy    TOTEN  =      7259.70162905 eV

  energy without entropy =     7259.71212825  energy(sigma->0) =     7259.70687865


--------------------------------------------------------------------------------------------------------




--------------------------------------- Iteration      1(   2)  ---------------------------------------


     EDDAV:  cpu time    1.8898: real time    1.9039
       DOS:  cpu time    0.0006: real time    0.0006
    --------------------------------------------
      LOOP:  cpu time    1.8904: real time    1.9045

 eigenvalue-minimisations  :  5160
 total energy-change (2. order) :-0.6887906E+04  (-0.6616948E+04)
 number of electron     512.0000000 magnetization 
 augmentation part      512.0000000 magnetization 

 Free energy of the ion-electron system (eV)
  ---------------------------------------------------
  alpha Z        PSCENC =      2633.01217485
  Ewald energy   TEWEN  =    -41315.12574500
  -Hartree energ DENC   =    -18713.15354016
  -exchange      EXHF   =         0.00000000
  -V(xc)+E(xc)   XCENC  =      3021.35613061
  PAW double counting   =     49162.60687518   -52066.79395667
  entropy T*S    EENTRO =        -0.00000000
  eigenvalues    EBANDS =    -11492.22902203
  atomic energy  EATOM  =     69142.12264788
  Solvation  Ediel_sol  =         0.00000000
  ---------------------------------------------------
  free energy    TOTEN  =       371.79556466 eV

  energy without entropy =      371.79556466  energy(sigma->0) =      371.79556466


--------------------------------------------------------------------------------------------------------




--------------------------------------- Iteration      1(   3)  ---------------------------------------


     EDDAV:  cpu time    2.1290: real time    2.1465
       DOS:  cpu time    0.0009: real time    0.0009
    --------------------------------------------
      LOOP:  cpu time    2.1299: real time    2.1473

 eigenvalue-minimisations  :  6000
 total energy-change (2. order) :-0.6912483E+03  (-0.6867416E+03)
 number of electron     512.0000000 magnetization 
 augmentation part      512.0000000 magnetization 

 Free energy of the ion-electron system (eV)
  ---------------------------------------------------
  alpha Z        PSCENC =      2633.01217485
  Ewald energy   TEWEN  =    -41315.12574500
  -Hartree energ DENC   =    -18713.15354016
  -exchange      EXHF   =         0.00000000
  -V(xc)+E(xc)   XCENC  =      3021.35613061
  PAW double counting   =     49162.60687518   -52066.79395667
  entropy T*S    EENTRO =        -0.00000000
  eigenvalues    EBANDS =    -12183.47731657
  atomic energy  EATOM  =     69142.12264788
  Solvation  Ediel_sol  =         0.00000000
  ---------------------------------------------------
  free energy    TOTEN  =      -319.45272988 eV

  energy without entropy =     -319.45272988  energy(sigma->0) =     -319.45272988


--------------------------------------------------------------------------------------------------------




--------------------------------------- Iteration      1(   4)  ---------------------------------------


     EDDAV:  cpu time    2.4129: real time    2.4297
       DOS:  cpu time    0.0006: real time    0.0007
    --------------------------------------------
      LOOP:  cpu time    2.4136: real time    2.4304

 eigenvalue-minimisations  :  7248
 total energy-change (2. order) :-0.9627562E+02  (-0.9545354E+02)
 number of electron     512.0000000 magnetization 
 augmentation part      512.0000000 magnetization 

 Free energy of the ion-electron system (eV)
  ---------------------------------------------------
  alpha Z        PSCENC =      2633.01217485
  Ewald energy   TEWEN  =    -41315.12574500
  -Hartree energ DENC   =    -18713.15354016
  -exchange      EXHF   =         0.00000000
  -V(xc)+E(xc)   XCENC  =      3021.35613061
  PAW double counting   =     49162.60687518   -52066.79395667
  entropy T*S    EENTRO =        -0.00000000
  eigenvalues    EBANDS =    -12279.75293606
  atomic energy  EATOM  =     69142.12264788
  Solvation  Ediel_sol  =         0.00000000
  ---------------------------------------------------
  free energy    TOTEN  =      -415.72834937 eV

  energy without entropy =     -415.72834937  energy(sigma->0) =     -415.72834937


--------------------------------------------------------------------------------------------------------




--------------------------------------- Iteration      1(   5)  ---------------------------------------


     EDDAV:  cpu time    2.2896: real time    2.3073
       DOS:  cpu time    0.0007: real time    0.0007
    CHARGE:  cpu time    0.0758: real time    0.0760
    MIXING:  cpu time    0.0018: real time    0.0066
    --------------------------------------------
      LOOP:  cpu time    2.3680: real time    2.3907

 eigenvalue-minimisations  :  6440
 total energy-change (2. order) :-0.1541790E+02  (-0.1541209E+02)
 number of electron     512.0005511 magnetization 
 augmentation part      147.4923853 magnetization 

 Broyden mixing:
  rms(total) = 0.49104E+01    rms(broyden)= 0.48713E+01
  rms(prec ) = 0.67084E+01
  weight for this iteration     100.00

 Free energy of the ion-electron system (eV)
  ---------------------------------------------------
  alpha Z        PSCENC =      2633.01217485
  Ewald energy   TEWEN  =    -41315.12574500
  -Hartree energ DENC   =    -18713.15354016
  -exchange      EXHF   =         0.00000000
  -V(xc)+E(xc)   XCENC  =      3021.35613061
  PAW double counting   =     49162.60687518   -52066.79395667
  entropy T*S    EENTRO =        -0.00000000
  eigenvalues    EBANDS =    -12295.17083682
  atomic energy  EATOM  =     69142.12264788
  Solvation  Ediel_sol  =         0.00000000
  ---------------------------------------------------
  free energy    TOTEN  =      -431.14625013 eV

  energy without entropy =     -431.14625013  energy(sigma->0) =     -431.14625013


--------------------------------------------------------------------------------------------------------




--------------------------------------- Iteration      1(   6)  ---------------------------------------


    POTLOK:  cpu time    0.0099: real time    0.0175
    SETDIJ:  cpu time    0.0939: real time    0.0943
    EDDIAG:  cpu time    0.4156: real time    0.4186
  RMM-DIIS:  cpu time    0.7706: real time    0.7744
    ORTHCH:  cpu time    0.0936: real time    0.0941
       DOS:  cpu time    0.0006: real time    0.0006
    CHARGE:  cpu time    0.0718: real time    0.0720
    MIXING:  cpu time    0.0006: real time    0.0006
    --------------------------------------------
      LOOP:  cpu time    1.4566: real time    1.4720

 eigenvalue-minimisations  :  5568
 total energy-change (2. order) : 0.5266264E+02  (-0.1836838E+02)
 number of electron     512.0005253 magnetization 
 augmentation part      142.5427187 magnetization 

 Broyden mixing:
  rms(total) = 0.16839E+01    rms(broyden)= 0.16828E+01
  rms(prec ) = 0.19868E+01
  weight for this iteration     100.00

 eigenvalues of (default mixing * dielectric matrix)
  average eigenvalue GAMMA=   1.0401
  1.0401

 Free energy of the ion-electron system (eV)
  ---------------------------------------------------
  alpha Z        PSCENC =      2633.01217485
  Ewald energy   TEWEN  =    -41315.12574500
  -Hartree energ DENC   =    -18835.88695159
  -exchange      EXHF   =         0.00000000
  -V(xc)+E(xc)   XCENC  =      3045.08088489
  PAW double counting   =     49876.31122498   -52968.64345701
  entropy T*S    EENTRO =        -0.00000000
  eigenvalues    EBANDS =    -11955.35439148
  atomic energy  EATOM  =     69142.12264788
  Solvation  Ediel_sol  =         0.00000000
  ---------------------------------------------------
  free energy    TOTEN  =      -378.48361250 eV

  energy without entropy =     -378.48361250  energy(sigma->0) =     -378.48361250


--------------------------------------------------------------------------------------------------------




--------------------------------------- Iteration      1(   7)  ---------------------------------------


    POTLOK:  cpu time    0.0108: real time    0.0157
    SETDIJ:  cpu time    0.0922: real time    0.0926
    EDDIAG:  cpu time    0.4576: real time    0.4592
  RMM-DIIS:  cpu time    0.9797: real time    0.9842
    ORTHCH:  cpu time    0.1005: real time    0.1010
       DOS:  cpu time    0.0008: real time    0.0008
    CHARGE:  cpu time    0.0719: real time    0.0721
    MIXING:  cpu time    0.0005: real time    0.0005
    --------------------------------------------
      LOOP:  cpu time    1.7141: real time    1.7261

 eigenvalue-minimisations  :  6799
 total energy-change (2. order) :-0.9005762E+00  (-0.1838072E+01)
 number of electron     512.0005210 magnetization 
 augmentation part      141.6071159 magnetization 

 Broyden mixing:
  rms(total) = 0.10393E+01    rms(broyden)= 0.10390E+01
  rms(prec ) = 0.11961E+01
  weight for this iteration     100.00

 eigenvalues of (default mixing * dielectric matrix)
  average eigenvalue GAMMA=   1.7273
  1.1700  2.2845

 Free energy of the ion-electron system (eV)
  ---------------------------------------------------
  alpha Z        PSCENC =      2633.01217485
  Ewald energy   TEWEN  =    -41315.12574500
  -Hartree energ DENC   =    -18713.81055000
  -exchange      EXHF   =         0.00000000
  -V(xc)+E(xc)   XCENC  =      3042.33601574
  PAW double counting   =     50098.48769991   -53304.20752230
  entropy T*S    EENTRO =        -0.00000000
  eigenvalues    EBANDS =    -11962.19890976
  atomic energy  EATOM  =     69142.12264788
  Solvation  Ediel_sol  =         0.00000000
  ---------------------------------------------------
  free energy    TOTEN  =      -379.38418869 eV

  energy without entropy =     -379.38418869  energy(sigma->0) =     -379.38418869


--------------------------------------------------------------------------------------------------------




--------------------------------------- Iteration      1(   8)  ---------------------------------------


    POTLOK:  cpu time    0.0095: real time    0.0150
    SETDIJ:  cpu time    0.0916: real time    0.0920
    EDDIAG:  cpu time    0.4480: real time    0.4495
  RMM-DIIS:  cpu time    1.0134: real time    1.0183
    ORTHCH:  cpu time    0.1052: real time    0.1056
       DOS:  cpu time    0.0006: real time    0.0006
    CHARGE:  cpu time    0.0720: real time    0.0722
    MIXING:  cpu time    0.0004: real time    0.0004
    --------------------------------------------
      LOOP:  cpu time    1.7406: real time    1.7535

 eigenvalue-minimisations  :  6917
 total energy-change (2. order) :-0.2469358E-01  (-0.4486995E+00)
 number of electron     512.0005221 magnetization 
 augmentation part      141.7257366 magnetization 

 Broyden mixing:
  rms(total) = 0.21776E+00    rms(broyden)= 0.21758E+00
  rms(prec ) = 0.31291E+00
  weight for this iteration     100.00

 eigenvalues of (default mixing * dielectric matrix)
  average eigenvalue GAMMA=   1.3816
  2.3750  1.0993  0.6703

 Free energy of the ion-electron system (eV)
  ---------------------------------------------------
  alpha Z        PSCENC =      2633.01217485
  Ewald energy   TEWEN  =    -41315.12574500
  -Hartree energ DENC   =    -18498.76685080
  -exchange      EXHF   =         0.00000000
  -V(xc)+E(xc)   XCENC  =      3033.32781566
  PAW double counting   =     50369.43684782   -53709.40545968
  entropy T*S    EENTRO =        -0.00000000
  eigenvalues    EBANDS =    -12034.01031299
  atomic energy  EATOM  =     69142.12264788
  Solvation  Ediel_sol  =         0.00000000
  ---------------------------------------------------
  free energy    TOTEN  =      -379.40888227 eV

  energy without entropy =     -379.40888227  energy(sigma->0) =     -379.40888227


--------------------------------------------------------------------------------------------------------




--------------------------------------- Iteration      1(   9)  ---------------------------------------


    POTLOK:  cpu time    0.0109: real time    0.0161
    SETDIJ:  cpu time    0.0953: real time    0.0957
    EDDIAG:  cpu time    0.4213: real time    0.4228
  RMM-DIIS:  cpu time    1.1952: real time    1.2007
    ORTHCH:  cpu time    0.0973: real time    0.0977
       DOS:  cpu time    0.0007: real time    0.0007
    CHARGE:  cpu time    0.0721: real time    0.0723
    MIXING:  cpu time    0.0004: real time    0.0004
    --------------------------------------------
      LOOP:  cpu time    1.8933: real time    1.9065

 eigenvalue-minimisations  :  8290
 total energy-change (2. order) :-0.1928112E+00  (-0.3213967E+00)
 number of electron     512.0005201 magnetization 
 augmentation part      141.2294690 magnetization 

 Broyden mixing:
  rms(total) = 0.11788E+00    rms(broyden)= 0.11644E+00
  rms(prec ) = 0.15240E+00
  weight for this iteration     100.00

 eigenvalues of (default mixing * dielectric matrix)
  average eigenvalue GAMMA=   1.2996
  2.4981  1.0306  0.8706  0.7992

 Free energy of the ion-electron system (eV)
  ---------------------------------------------------
  alpha Z        PSCENC =      2633.01217485
  Ewald energy   TEWEN  =    -41315.12574500
  -Hartree energ DENC   =    -18502.59302327
  -exchange      EXHF   =         0.00000000
  -V(xc)+E(xc)   XCENC  =      3034.22865669
  PAW double counting   =     50405.76917806   -53752.23397350
  entropy T*S    EENTRO =        -0.00000000
  eigenvalues    EBANDS =    -12024.78160915
  atomic energy  EATOM  =     69142.12264788
  Solvation  Ediel_sol  =         0.00000000
  ---------------------------------------------------
  free energy    TOTEN  =      -379.60169346 eV

  energy without entropy =     -379.60169346  energy(sigma->0) =     -379.60169346


--------------------------------------------------------------------------------------------------------




--------------------------------------- Iteration      1(  10)  ---------------------------------------


    POTLOK:  cpu time    0.0082: real time    0.0165
    SETDIJ:  cpu time    0.0909: real time    0.0912
    EDDIAG:  cpu time    0.4086: real time    0.4099
  RMM-DIIS:  cpu time    1.2487: real time    1.2547
    ORTHCH:  cpu time    0.0881: real time    0.0885
       DOS:  cpu time    0.0006: real time    0.0006
    CHARGE:  cpu time    0.0717: real time    0.0719
    MIXING:  cpu time    0.0006: real time    0.0006
    --------------------------------------------
      LOOP:  cpu time    1.9174: real time    1.9338

 eigenvalue-minimisations  :  8713
 total energy-change (2. order) :-0.1398183E+00  (-0.1291863E+00)
 number of electron     512.0005193 magnetization 
 augmentation part      140.9822011 magnetization 

 Broyden mixing:
  rms(total) = 0.21788E+00    rms(broyden)= 0.21739E+00
  rms(prec ) = 0.25026E+00
  weight for this iteration     100.00

 eigenvalues of (default mixing * dielectric matrix)
  average eigenvalue GAMMA=   1.5549
  2.5109  2.5109  1.0760  1.0760  0.6006

 Free energy of the ion-electron system (eV)
  ---------------------------------------------------
  alpha Z        PSCENC =      2633.01217485
  Ewald energy   TEWEN  =    -41315.12574500
  -Hartree energ DENC   =    -18485.75932960
  -exchange      EXHF   =         0.00000000
  -V(xc)+E(xc)   XCENC  =      3033.53629944
  PAW double counting   =     50399.49399138   -53756.34559297
  entropy T*S    EENTRO =        -0.00000000
  eigenvalues    EBANDS =    -12030.67595774
  atomic energy  EATOM  =     69142.12264788
  Solvation  Ediel_sol  =         0.00000000
  ---------------------------------------------------
  free energy    TOTEN  =      -379.74151177 eV

  energy without entropy =     -379.74151177  energy(sigma->0) =     -379.74151177


--------------------------------------------------------------------------------------------------------




--------------------------------------- Iteration      1(  11)  ---------------------------------------


    POTLOK:  cpu time    0.0087: real time    0.0157
    SETDIJ:  cpu time    0.0902: real time    0.0905
    EDDIAG:  cpu time    0.4075: real time    0.4089
  RMM-DIIS:  cpu time    1.1198: real time    1.1252
    ORTHCH:  cpu time    0.0911: real time    0.0914
       DOS:  cpu time    0.0006: real time    0.0006
    CHARGE:  cpu time    0.0716: real time    0.0718
    MIXING:  cpu time    0.0004: real time    0.0004
    --------------------------------------------
      LOOP:  cpu time    1.7898: real time    1.8046

 eigenvalue-minimisations  :  7408
 total energy-change (2. order) :-0.6728671E-01  (-0.8770046E-01)
 number of electron     512.0005177 magnetization 
 augmentation part      140.6206340 magnetization 

 Broyden mixing:
  rms(total) = 0.82725E-01    rms(broyden)= 0.81952E-01
  rms(prec ) = 0.10123E+00
  weight for this iteration     100.00

 eigenvalues of (default mixing * dielectric matrix)
  average eigenvalue GAMMA=   1.4172
  2.6668  2.6668  1.0460  1.0460  0.7107  0.3666

 Free energy of the ion-electron system (eV)
  ---------------------------------------------------
  alpha Z        PSCENC =      2633.01217485
  Ewald energy   TEWEN  =    -41315.12574500
  -Hartree energ DENC   =    -18525.77876830
  -exchange      EXHF   =         0.00000000
  -V(xc)+E(xc)   XCENC  =      3035.93633514
  PAW double counting   =     50451.41969547   -53790.20478536
  entropy T*S    EENTRO =        -0.00000000
  eigenvalues    EBANDS =    -12011.19035317
  atomic energy  EATOM  =     69142.12264788
  Solvation  Ediel_sol  =         0.00000000
  ---------------------------------------------------
  free energy    TOTEN  =      -379.80879848 eV

  energy without entropy =     -379.80879848  energy(sigma->0) =     -379.80879848


--------------------------------------------------------------------------------------------------------




--------------------------------------- Iteration      1(  12)  ---------------------------------------


    POTLOK:  cpu time    0.0088: real time    0.0164
    SETDIJ:  cpu time    0.0902: real time    0.0905
    EDDIAG:  cpu time    0.4146: real time    0.4158
  RMM-DIIS:  cpu time    1.2005: real time    1.2061
    ORTHCH:  cpu time    0.0885: real time    0.0889
       DOS:  cpu time    0.0006: real time    0.0006
    CHARGE:  cpu time    0.0718: real time    0.0719
    MIXING:  cpu time    0.0004: real time    0.0004
    --------------------------------------------
      LOOP:  cpu time    1.8753: real time    1.8907

 eigenvalue-minimisations  :  8304
 total energy-change (2. order) :-0.3492420E-01  (-0.4203408E-01)
 number of electron     512.0005174 magnetization 
 augmentation part      140.5194507 magnetization 

 Broyden mixing:
  rms(total) = 0.75842E-01    rms(broyden)= 0.75523E-01
  rms(prec ) = 0.90359E-01
  weight for this iteration     100.00

 eigenvalues of (default mixing * dielectric matrix)
  average eigenvalue GAMMA=   1.3817
  2.7017  2.7017  1.0122  1.0122  0.7889  0.7889  0.6661

 Free energy of the ion-electron system (eV)
  ---------------------------------------------------
  alpha Z        PSCENC =      2633.01217485
  Ewald energy   TEWEN  =    -41315.12574500
  -Hartree energ DENC   =    -18525.75399413
  -exchange      EXHF   =         0.00000000
  -V(xc)+E(xc)   XCENC  =      3035.86444008
  PAW double counting   =     50466.71178894   -53803.82216179
  entropy T*S    EENTRO =        -0.00000000
  eigenvalues    EBANDS =    -12012.85287351
  atomic energy  EATOM  =     69142.12264788
  Solvation  Ediel_sol  =         0.00000000
  ---------------------------------------------------
  free energy    TOTEN  =      -379.84372268 eV

  energy without entropy =     -379.84372268  energy(sigma->0) =     -379.84372268


--------------------------------------------------------------------------------------------------------




--------------------------------------- Iteration      1(  13)  ---------------------------------------


    POTLOK:  cpu time    0.0112: real time    0.0170
    SETDIJ:  cpu time    0.0898: real time    0.0901
    EDDIAG:  cpu time    0.4074: real time    0.4086
  RMM-DIIS:  cpu time    1.2429: real time    1.2488
    ORTHCH:  cpu time    0.0883: real time    0.0887
       DOS:  cpu time    0.0006: real time    0.0006
    CHARGE:  cpu time    0.0716: real time    0.0717
    MIXING:  cpu time    0.0004: real time    0.0004
    --------------------------------------------
      LOOP:  cpu time    1.9122: real time    1.9259

 eigenvalue-minimisations  :  8748
 total energy-change (2. order) :-0.1648393E-01  (-0.1752148E-01)
 number of electron     512.0005170 magnetization 
 augmentation part      140.4255673 magnetization 

 Broyden mixing:
  rms(total) = 0.82733E-01    rms(broyden)= 0.82598E-01
  rms(prec ) = 0.10027E+00
  weight for this iteration     100.00

 eigenvalues of (default mixing * dielectric matrix)
  average eigenvalue GAMMA=   1.4292
  2.7812  2.6416  1.3637  1.3637  1.0257  1.0257  0.7416  0.4901

 Free energy of the ion-electron system (eV)
  ---------------------------------------------------
  alpha Z        PSCENC =      2633.01217485
  Ewald energy   TEWEN  =    -41315.12574500
  -Hartree energ DENC   =    -18527.95483930
  -exchange      EXHF   =         0.00000000
  -V(xc)+E(xc)   XCENC  =      3035.93527899
  PAW double counting   =     50492.86463403   -53827.97196634
  entropy T*S    EENTRO =        -0.00000000
  eigenvalues    EBANDS =    -12012.74239171
  atomic energy  EATOM  =     69142.12264788
  Solvation  Ediel_sol  =         0.00000000
  ---------------------------------------------------
  free energy    TOTEN  =      -379.86020661 eV

  energy without entropy =     -379.86020661  energy(sigma->0) =     -379.86020661


--------------------------------------------------------------------------------------------------------




--------------------------------------- Iteration      1(  14)  ---------------------------------------


    POTLOK:  cpu time    0.0107: real time    0.0164
    SETDIJ:  cpu time    0.0906: real time    0.0909
    EDDIAG:  cpu time    0.4273: real time    0.4295
  RMM-DIIS:  cpu time    1.2296: real time    1.2354
    ORTHCH:  cpu time    0.0881: real time    0.0886
       DOS:  cpu time    0.0006: real time    0.0006
    CHARGE:  cpu time    0.0719: real time    0.0721
    MIXING:  cpu time    0.0005: real time    0.0005
    --------------------------------------------
      LOOP:  cpu time    1.9194: real time    1.9340

 eigenvalue-minimisations  :  8371
 total energy-change (2. order) : 0.1451284E-02  (-0.7092453E-02)
 number of electron     512.0005172 magnetization 
 augmentation part      140.4381365 magnetization 

 Broyden mixing:
  rms(total) = 0.37505E-01    rms(broyden)= 0.37470E-01
  rms(prec ) = 0.42056E-01
  weight for this iteration     100.00

 eigenvalues of (default mixing * dielectric matrix)
  average eigenvalue GAMMA=   1.4464
  2.6385  2.6385  2.0918  1.3104  1.3104  1.0024  0.7057  0.7057  0.6139

 Free energy of the ion-electron system (eV)
  ---------------------------------------------------
  alpha Z        PSCENC =      2633.01217485
  Ewald energy   TEWEN  =    -41315.12574500
  -Hartree energ DENC   =    -18531.93397259
  -exchange      EXHF   =         0.00000000
  -V(xc)+E(xc)   XCENC  =      3035.90350021
  PAW double counting   =     50557.10807393   -53886.45500671
  entropy T*S    EENTRO =        -0.00000000
  eigenvalues    EBANDS =    -12014.49042789
  atomic energy  EATOM  =     69142.12264788
  Solvation  Ediel_sol  =         0.00000000
  ---------------------------------------------------
  free energy    TOTEN  =      -379.85875532 eV

  energy without entropy =     -379.85875532  energy(sigma->0) =     -379.85875532


--------------------------------------------------------------------------------------------------------




--------------------------------------- Iteration      1(  15)  ---------------------------------------


    POTLOK:  cpu time    0.0072: real time    0.0155
    SETDIJ:  cpu time    0.0929: real time    0.0932
    EDDIAG:  cpu time    0.4109: real time    0.4124
  RMM-DIIS:  cpu time    1.2837: real time    1.2898
    ORTHCH:  cpu time    0.0921: real time    0.0925
       DOS:  cpu time    0.0005: real time    0.0005
    CHARGE:  cpu time    0.0717: real time    0.0719
    MIXING:  cpu time    0.0006: real time    0.0006
    --------------------------------------------
      LOOP:  cpu time    1.9595: real time    1.9764

 eigenvalue-minimisations  :  8766
 total energy-change (2. order) :-0.3906089E-02  (-0.4480106E-02)
 number of electron     512.0005171 magnetization 
 augmentation part      140.4111287 magnetization 

 Broyden mixing:
  rms(total) = 0.20526E-01    rms(broyden)= 0.20469E-01
  rms(prec ) = 0.22568E-01
  weight for this iteration     100.00

 eigenvalues of (default mixing * dielectric matrix)
  average eigenvalue GAMMA=   1.4581
  2.8748  2.8748  2.4101  1.2288  1.2288  1.0348  0.8158  0.8158  0.7721  0.5253

 Free energy of the ion-electron system (eV)
  ---------------------------------------------------
  alpha Z        PSCENC =      2633.01217485
  Ewald energy   TEWEN  =    -41315.12574500
  -Hartree energ DENC   =    -18536.65275839
  -exchange      EXHF   =         0.00000000
  -V(xc)+E(xc)   XCENC  =      3036.04143618
  PAW double counting   =     50594.28120972   -53919.66118721
  entropy T*S    EENTRO =        -0.00000000
  eigenvalues    EBANDS =    -12013.88043943
  atomic energy  EATOM  =     69142.12264788
  Solvation  Ediel_sol  =         0.00000000
  ---------------------------------------------------
  free energy    TOTEN  =      -379.86266141 eV

  energy without entropy =     -379.86266141  energy(sigma->0) =     -379.86266141


--------------------------------------------------------------------------------------------------------




--------------------------------------- Iteration      1(  16)  ---------------------------------------


    POTLOK:  cpu time    0.0076: real time    0.0163
    SETDIJ:  cpu time    0.0902: real time    0.0906
    EDDIAG:  cpu time    0.4045: real time    0.4058
  RMM-DIIS:  cpu time    1.2678: real time    1.2740
    ORTHCH:  cpu time    0.0893: real time    0.0898
       DOS:  cpu time    0.0006: real time    0.0006
    CHARGE:  cpu time    0.0718: real time    0.0720
    MIXING:  cpu time    0.0006: real time    0.0006
    --------------------------------------------
      LOOP:  cpu time    1.9324: real time    1.9496

 eigenvalue-minimisations  :  8883
 total energy-change (2. order) :-0.1259109E-02  (-0.1304545E-02)
 number of electron     512.0005171 magnetization 
 augmentation part      140.4033057 magnetization 

 Broyden mixing:
  rms(total) = 0.10248E-01    rms(broyden)= 0.10223E-01
  rms(prec ) = 0.11229E-01
  weight for this iteration     100.00

 eigenvalues of (default mixing * dielectric matrix)
  average eigenvalue GAMMA=   1.6147
  4.4706  2.9273  2.3158  1.4938  1.4938  1.1022  0.9763  0.9763  0.5451  0.7305
  0.7305

 Free energy of the ion-electron system (eV)
  ---------------------------------------------------
  alpha Z        PSCENC =      2633.01217485
  Ewald energy   TEWEN  =    -41315.12574500
  -Hartree energ DENC   =    -18539.11204718
  -exchange      EXHF   =         0.00000000
  -V(xc)+E(xc)   XCENC  =      3036.11918500
  PAW double counting   =     50611.72975104   -53935.15181298
  entropy T*S    EENTRO =        -0.00000000
  eigenvalues    EBANDS =    -12013.45807412
  atomic energy  EATOM  =     69142.12264788
  Solvation  Ediel_sol  =         0.00000000
  ---------------------------------------------------
  free energy    TOTEN  =      -379.86392052 eV

  energy without entropy =     -379.86392052  energy(sigma->0) =     -379.86392052


--------------------------------------------------------------------------------------------------------




--------------------------------------- Iteration      1(  17)  ---------------------------------------


    POTLOK:  cpu time    0.0106: real time    0.0160
    SETDIJ:  cpu time    0.0912: real time    0.0915
    EDDIAG:  cpu time    0.4157: real time    0.4170
  RMM-DIIS:  cpu time    1.3059: real time    1.3121
    ORTHCH:  cpu time    0.0898: real time    0.0903
       DOS:  cpu time    0.0006: real time    0.0006
    CHARGE:  cpu time    0.0725: real time    0.0727
    MIXING:  cpu time    0.0007: real time    0.0007
    --------------------------------------------
      LOOP:  cpu time    1.9870: real time    2.0009

 eigenvalue-minimisations  :  9121
 total energy-change (2. order) :-0.7725120E-03  (-0.7834412E-03)
 number of electron     512.0005170 magnetization 
 augmentation part      140.3930462 magnetization 

 Broyden mixing:
  rms(total) = 0.15514E-02    rms(broyden)= 0.14816E-02
  rms(prec ) = 0.18862E-02
  weight for this iteration     100.00

 eigenvalues of (default mixing * dielectric matrix)
  average eigenvalue GAMMA=   1.6272
  5.1349  2.6816  2.4993  1.5292  1.5292  1.2762  1.0364  1.0364  0.7912  0.7912
  0.5456  0.6758

 Free energy of the ion-electron system (eV)
  ---------------------------------------------------
  alpha Z        PSCENC =      2633.01217485
  Ewald energy   TEWEN  =    -41315.12574500
  -Hartree energ DENC   =    -18541.90703060
  -exchange      EXHF   =         0.00000000
  -V(xc)+E(xc)   XCENC  =      3036.23088099
  PAW double counting   =     50623.90629646   -53945.45301047
  entropy T*S    EENTRO =        -0.00000000
  eigenvalues    EBANDS =    -12012.65090713
  atomic energy  EATOM  =     69142.12264788
  Solvation  Ediel_sol  =         0.00000000
  ---------------------------------------------------
  free energy    TOTEN  =      -379.86469303 eV

  energy without entropy =     -379.86469303  energy(sigma->0) =     -379.86469303


--------------------------------------------------------------------------------------------------------




--------------------------------------- Iteration      1(  18)  ---------------------------------------


    POTLOK:  cpu time    0.0125: real time    0.0166
    SETDIJ:  cpu time    0.0907: real time    0.0910
    EDDIAG:  cpu time    0.4060: real time    0.4073
  RMM-DIIS:  cpu time    1.2835: real time    1.2898
    ORTHCH:  cpu time    0.0886: real time    0.0890
       DOS:  cpu time    0.0006: real time    0.0006
    CHARGE:  cpu time    0.0716: real time    0.0718
    MIXING:  cpu time    0.0006: real time    0.0006
    --------------------------------------------
      LOOP:  cpu time    1.9541: real time    1.9667

 eigenvalue-minimisations  :  8773
 total energy-change (2. order) :-0.4108243E-03  (-0.4027996E-03)
 number of electron     512.0005170 magnetization 
 augmentation part      140.3873293 magnetization 

 Broyden mixing:
  rms(total) = 0.97151E-03    rms(broyden)= 0.91608E-03
  rms(prec ) = 0.10426E-02
  weight for this iteration     100.00

 eigenvalues of (default mixing * dielectric matrix)
  average eigenvalue GAMMA=   1.5665
  4.9348  2.7993  2.3229  1.6908  1.4493  1.4493  1.0803  1.0803  0.8423  0.8423
  0.7433  0.5442  0.5854

 Free energy of the ion-electron system (eV)
  ---------------------------------------------------
  alpha Z        PSCENC =      2633.01217485
  Ewald energy   TEWEN  =    -41315.12574500
  -Hartree energ DENC   =    -18542.10197044
  -exchange      EXHF   =         0.00000000
  -V(xc)+E(xc)   XCENC  =      3036.24255932
  PAW double counting   =     50624.25757783   -53945.71493000
  entropy T*S    EENTRO =        -0.00000000
  eigenvalues    EBANDS =    -12012.55741828
  atomic energy  EATOM  =     69142.12264788
  Solvation  Ediel_sol  =         0.00000000
  ---------------------------------------------------
  free energy    TOTEN  =      -379.86510386 eV

  energy without entropy =     -379.86510386  energy(sigma->0) =     -379.86510386


--------------------------------------------------------------------------------------------------------




--------------------------------------- Iteration      1(  19)  ---------------------------------------


    POTLOK:  cpu time    0.0068: real time    0.0158
    SETDIJ:  cpu time    0.0938: real time    0.0941
    EDDIAG:  cpu time    0.4096: real time    0.4109
  RMM-DIIS:  cpu time    1.2974: real time    1.3034
    ORTHCH:  cpu time    0.0917: real time    0.0921
       DOS:  cpu time    0.0005: real time    0.0005
    CHARGE:  cpu time    0.0722: real time    0.0724
    MIXING:  cpu time    0.0007: real time    0.0007
    --------------------------------------------
      LOOP:  cpu time    1.9727: real time    1.9899

 eigenvalue-minimisations  :  8823
 total energy-change (2. order) :-0.2294047E-03  (-0.2226546E-03)
 number of electron     512.0005170 magnetization 
 augmentation part      140.3832998 magnetization 

 Broyden mixing:
  rms(total) = 0.47161E-03    rms(broyden)= 0.42435E-03
  rms(prec ) = 0.54204E-03
  weight for this iteration     100.00
  WARNING: grid for Broyden might be to small

 eigenvalues of (default mixing * dielectric matrix)
  average eigenvalue GAMMA=   1.4936
  4.9992  2.7932  2.2773  1.7819  1.4682  1.4682  1.0978  1.0978  0.8529  0.8529
  0.7377  0.5446  0.6326  0.3065

 Free energy of the ion-electron system (eV)
  ---------------------------------------------------
  alpha Z        PSCENC =      2633.01217485
  Ewald energy   TEWEN  =    -41315.12574500
  -Hartree energ DENC   =    -18542.02573498
  -exchange      EXHF   =         0.00000000
  -V(xc)+E(xc)   XCENC  =      3036.24103043
  PAW double counting   =     50623.32988662   -53944.85469217
  entropy T*S    EENTRO =        -0.00000000
  eigenvalues    EBANDS =    -12012.56490089
  atomic energy  EATOM  =     69142.12264788
  Solvation  Ediel_sol  =         0.00000000
  ---------------------------------------------------
  free energy    TOTEN  =      -379.86533326 eV

  energy without entropy =     -379.86533326  energy(sigma->0) =     -379.86533326


--------------------------------------------------------------------------------------------------------




--------------------------------------- Iteration      1(  20)  ---------------------------------------


    POTLOK:  cpu time    0.0087: real time    0.0157
    SETDIJ:  cpu time    0.0909: real time    0.0912
    EDDIAG:  cpu time    0.4053: real time    0.4066
  RMM-DIIS:  cpu time    1.2596: real time    1.2655
    ORTHCH:  cpu time    0.1056: real time    0.1061
       DOS:  cpu time    0.0006: real time    0.0006
    CHARGE:  cpu time    0.0717: real time    0.0719
    MIXING:  cpu time    0.0007: real time    0.0007
    --------------------------------------------
      LOOP:  cpu time    1.9429: real time    1.9582

 eigenvalue-minimisations  :  8615
 total energy-change (2. order) :-0.1318068E-03  (-0.1312318E-03)
 number of electron     512.0005170 magnetization 
 augmentation part      140.3811866 magnetization 

 Broyden mixing:
  rms(total) = 0.33975E-03    rms(broyden)= 0.31192E-03
  rms(prec ) = 0.38975E-03
  weight for this iteration     100.00

 eigenvalues of (default mixing * dielectric matrix)
  average eigenvalue GAMMA=   1.4455
  4.9920  2.8066  2.2829  1.6339  1.4755  1.4755  1.1144  1.1144  0.8385  0.8385
  0.7612  0.6575  0.6575  0.5442  0.4899

 Free energy of the ion-electron system (eV)
  ---------------------------------------------------
  alpha Z        PSCENC =      2633.01217485
  Ewald energy   TEWEN  =    -41315.12574500
  -Hartree energ DENC   =    -18542.07794421
  -exchange      EXHF   =         0.00000000
  -V(xc)+E(xc)   XCENC  =      3036.24223279
[...]
  in kB      11.37416    11.37534    11.37206    -0.00001    -0.00014    -0.00035
  external pressure =       11.37 kB  Pullay stress =        0.00 kB


 VOLUME and BASIS-vectors are now :
 -----------------------------------------------------------------------------
  energy-cutoff  :      500.00
  volume of cell :      595.44
      direct lattice vectors                 reciprocal lattice vectors
     8.412913863  0.000000000  0.000000000     0.118864880  0.000000000  0.000000000
     0.000000000  8.412913863  0.000000000     0.000000000  0.118864880  0.000000000
     0.000000000  0.000000000  8.412913863     0.000000000  0.000000000  0.118864880

  length of vectors
     8.412913863  8.412913863  8.412913863     0.118864880  0.118864880  0.118864880


 FORCES acting on ions
    electron-ion (+dipol)            ewald-force                    non-local-force                 convergence-correction
 -----------------------------------------------------------------------------------------------
   0.400E-03 -.115E-03 0.192E-04   0.128E-12 -.533E-13 -.201E-13   -.135E-03 0.225E-03 0.872E-04   -.790E-04 0.403E-04 -.432E-05
   -.296E-03 -.190E-03 -.219E-03   0.204E-13 -.319E-13 -.533E-14   0.204E-03 0.772E-04 0.116E-03   -.643E-05 0.217E-04 -.521E-04
   -.474E-04 -.137E-04 0.238E-04   -.533E-13 -.639E-13 -.391E-13   -.618E-04 -.299E-03 -.114E-03   0.553E-04 0.925E-04 0.243E-04
   -.174E-03 0.160E-03 0.924E-04   0.355E-14 -.669E-13 -.503E-13   0.154E-03 -.133E-03 -.607E-04   0.260E-04 -.277E-04 0.954E-06
   0.114E-03 0.219E-03 -.197E-03   0.183E-13 0.355E-14 -.444E-13   -.236E-04 -.122E-03 0.193E-04   -.243E-04 -.601E-04 -.355E-04
   0.118E-03 -.902E-04 -.104E-03   0.130E-12 -.602E-13 -.124E-13   0.249E-04 0.171E-03 0.296E-03   -.959E-04 0.491E-04 0.637E-04
   0.160E-03 0.247E-03 0.116E-03   -.128E-12 0.639E-13 -.426E-13   -.319E-03 -.472E-03 -.511E-04   0.418E-04 0.600E-04 0.471E-04
   -.259E-03 0.174E-03 0.107E-03   -.711E-13 -.375E-13 -.391E-13   0.211E-03 -.142E-03 -.135E-03   -.130E-04 0.218E-04 0.149E-04
   0.924E-05 -.101E-03 -.693E-04   -.690E-13 -.320E-13 -.219E-13   -.155E-03 -.186E-04 0.942E-04   -.452E-04 -.612E-04 -.224E-04
   0.128E-03 0.948E-04 0.126E-03   -.372E-14 0.604E-13 0.355E-14   -.932E-04 -.713E-04 -.309E-03   -.747E-04 -.101E-04 0.298E-04
   -.133E-03 -.322E-05 -.995E-05   0.711E-13 -.107E-13 -.391E-13   0.864E-04 0.104E-04 -.338E-04   -.340E-04 -.890E-05 0.251E-04
   -.177E-03 -.557E-04 -.227E-04   -.426E-13 -.121E-12 -.526E-13   0.154E-03 0.110E-03 -.572E-04   0.516E-04 -.927E-05 0.198E-05
   0.142E-03 -.600E-04 -.382E-04   -.179E-12 0.000E+00 -.497E-13   -.116E-03 0.209E-04 0.163E-03   -.106E-03 0.745E-04 0.119E-04
   -.153E-04 -.796E-04 0.177E-03   -.177E-14 -.533E-13 -.213E-13   -.135E-03 0.149E-03 -.101E-03   -.745E-04 -.854E-04 -.557E-04
   -.117E-03 0.261E-03 0.657E-04   -.533E-13 0.213E-13 -.462E-13   0.248E-03 -.295E-03 0.185E-04   0.729E-04 -.139E-03 0.555E-04
   -.867E-04 0.114E-03 -.134E-04   0.568E-13 0.712E-14 -.391E-13   0.501E-05 -.979E-04 0.490E-04   -.294E-04 -.283E-04 -.334E-05
   0.136E-03 -.107E-03 -.101E-03   -.110E-12 -.174E-12 -.242E-13   -.454E-04 0.788E-04 0.148E-03   -.207E-04 0.404E-05 0.532E-04
   -.212E-03 0.416E-04 -.109E-03   -.532E-13 -.389E-13 -.178E-13   0.434E-03 -.219E-03 -.824E-04   -.894E-04 0.132E-05 -.389E-04
   0.171E-04 0.316E-04 0.526E-04   0.142E-13 -.711E-13 -.462E-13   -.214E-03 0.117E-03 -.152E-03   -.210E-04 -.666E-04 -.438E-04
   -.361E-03 -.275E-03 -.145E-03   -.941E-13 -.918E-13 -.645E-13   0.429E-03 0.403E-03 0.259E-05   0.532E-04 0.886E-04 0.301E-05
   -.183E-04 0.291E-03 -.909E-04   -.128E-12 -.114E-12 -.533E-13   0.244E-04 -.322E-03 -.600E-04   -.751E-04 0.150E-04 -.415E-04
   0.183E-03 0.117E-03 -.294E-03   -.141E-13 -.587E-13 -.462E-13   -.274E-03 -.108E-04 0.284E-03   -.104E-03 0.470E-04 0.117E-03
   0.548E-04 -.163E-04 0.824E-04   -.210E-12 -.711E-14 -.568E-13   0.659E-04 0.206E-03 0.115E-03   -.149E-04 0.427E-04 0.243E-04
   -.194E-03 0.690E-04 -.129E-03   0.178E-13 -.517E-13 -.426E-13   0.162E-03 0.525E-04 0.313E-03   0.103E-03 0.139E-03 0.746E-04
   0.317E-04 0.820E-04 -.329E-04   -.156E-12 -.391E-13 -.561E-13   0.114E-04 0.290E-04 -.199E-04   -.673E-05 -.121E-04 -.196E-04
   -.338E-04 0.186E-03 0.138E-03   -.428E-13 -.606E-13 -.284E-13   0.857E-04 -.136E-03 -.412E-04   0.494E-04 -.151E-04 0.141E-04
   -.272E-03 0.200E-03 0.240E-03   -.124E-12 -.320E-13 -.497E-13   0.473E-03 0.632E-04 -.676E-05   0.190E-04 0.886E-05 -.315E-05
   -.368E-04 0.164E-03 -.280E-04   -.174E-12 -.711E-13 -.669E-13   0.372E-04 0.729E-04 0.955E-04   -.833E-05 -.584E-04 0.380E-04
   0.252E-03 -.546E-04 0.160E-03   -.167E-12 -.568E-13 -.569E-13   -.316E-03 -.636E-04 -.188E-03   -.298E-04 0.595E-04 0.396E-04
   0.122E-03 0.255E-04 0.325E-04   -.569E-13 -.566E-13 -.568E-13   -.510E-04 0.126E-03 -.554E-04   -.206E-04 -.205E-04 -.331E-04
   -.253E-03 -.821E-04 0.881E-04   -.121E-12 0.711E-14 -.604E-13   0.215E-03 0.182E-03 -.457E-03   0.484E-04 -.511E-05 0.420E-04
   0.913E-04 0.527E-04 -.450E-04   -.227E-12 0.498E-13 -.462E-13   -.780E-04 -.285E-03 0.525E-04   0.403E-04 -.196E-04 -.547E-04
   -.218E-04 -.206E-03 -.995E-04   0.737E-13 -.133E-13 0.341E-13   -.466E-04 0.644E-04 0.820E-04   0.554E-04 0.146E-03 -.573E-05
   0.195E-03 -.237E-04 0.671E-04   -.222E-13 0.425E-14 0.462E-13   0.161E-04 0.118E-04 0.106E-03   -.718E-04 -.201E-04 -.791E-04
   0.129E-03 -.358E-04 0.534E-04   -.118E-13 0.799E-14 0.284E-13   -.193E-03 0.450E-04 -.221E-04   0.185E-05 -.594E-05 0.206E-04
   0.151E-03 0.975E-04 0.569E-04   -.791E-14 0.286E-13 0.390E-13   0.502E-04 -.187E-04 0.264E-04   -.339E-04 0.382E-04 -.336E-04
   -.149E-03 0.855E-04 -.309E-04   0.426E-13 0.284E-13 0.639E-13   0.811E-04 -.101E-03 -.878E-05   0.310E-04 -.221E-04 -.428E-05
   -.215E-03 -.194E-03 -.101E-03   0.702E-13 -.433E-13 0.187E-13   0.261E-04 0.712E-04 -.141E-03   0.541E-04 0.479E-04 0.871E-04
   0.384E-04 0.228E-06 -.262E-04   0.126E-13 0.409E-13 0.249E-13   -.374E-04 -.374E-04 0.226E-04   -.577E-05 0.866E-04 0.153E-04
   0.133E-03 -.205E-04 0.330E-05   0.480E-13 0.219E-13 0.266E-13   -.570E-04 -.457E-04 0.498E-04   -.139E-04 0.724E-04 -.237E-04
   -.176E-04 -.533E-05 0.133E-03   -.178E-14 0.471E-13 0.492E-13   -.266E-04 0.107E-03 0.160E-04   0.353E-04 -.130E-03 -.962E-04
   0.119E-03 0.515E-04 -.268E-03   0.711E-13 -.217E-16 0.568E-13   -.884E-04 -.907E-05 0.306E-04   -.450E-04 -.145E-05 0.115E-03
   0.867E-04 0.328E-05 -.143E-03   0.330E-13 0.577E-13 0.506E-13   0.937E-04 0.337E-04 0.121E-03   -.149E-03 -.265E-04 0.595E-04
   0.587E-04 0.789E-05 -.163E-03   0.127E-13 0.709E-14 0.557E-13   0.740E-04 0.231E-04 0.896E-05   -.105E-03 -.173E-04 0.700E-04
   0.165E-03 0.724E-04 0.574E-04   -.142E-13 0.000E+00 0.355E-13   -.574E-04 -.575E-04 -.472E-04   -.569E-04 0.346E-04 0.161E-04
   -.134E-03 -.101E-03 0.121E-03   0.426E-13 0.284E-13 0.497E-13   -.314E-04 -.304E-04 0.626E-04   0.516E-04 0.168E-05 -.104E-03
   0.205E-03 0.154E-03 0.237E-06   0.470E-13 0.364E-13 0.471E-13   -.457E-04 -.110E-04 0.548E-04   -.478E-04 -.107E-03 -.274E-04
   0.846E-04 -.738E-04 -.234E-03   0.493E-13 0.258E-13 0.506E-13   -.775E-04 0.302E-04 0.135E-03   -.739E-05 -.169E-04 0.726E-05
   -.115E-04 0.348E-04 -.158E-03   0.604E-13 0.338E-13 0.483E-13   0.206E-06 0.246E-04 0.882E-04   0.510E-05 -.555E-05 0.490E-04
   0.149E-04 -.530E-04 0.222E-03   0.113E-12 0.638E-13 0.488E-13   -.117E-03 -.670E-04 0.103E-03   0.835E-04 0.854E-04 -.167E-03
   0.106E-03 -.144E-03 0.104E-03   0.161E-12 0.568E-13 0.426E-13   -.880E-04 0.314E-04 -.339E-05   0.111E-04 0.315E-04 -.689E-04
   0.103E-03 0.447E-04 0.126E-03   0.125E-12 0.139E-13 0.566E-13   0.426E-04 0.368E-05 0.123E-04   -.754E-04 0.366E-05 -.128E-03
   -.283E-03 0.630E-04 -.274E-04   0.853E-13 0.711E-13 0.639E-13   0.166E-03 0.110E-05 0.858E-04   0.588E-04 -.105E-03 -.664E-04
   -.174E-03 -.392E-04 -.138E-03   0.119E-12 -.700E-15 0.488E-13   -.114E-04 -.366E-04 0.578E-04   0.894E-04 0.455E-04 0.999E-04
   -.318E-04 0.128E-03 0.164E-03   0.157E-12 0.853E-13 0.426E-13   -.762E-04 -.708E-04 -.794E-04   0.762E-05 -.457E-04 -.101E-04
   0.670E-04 -.886E-04 0.718E-04   0.191E-12 0.124E-13 0.284E-13   0.942E-04 0.332E-05 -.249E-04   -.113E-03 0.123E-04 0.267E-04
   0.382E-04 0.167E-03 -.175E-03   0.817E-13 0.782E-13 0.492E-13   -.350E-04 -.891E-05 0.616E-06   0.977E-05 -.554E-04 0.919E-04
   -.241E-03 -.206E-04 -.103E-03   0.568E-13 0.479E-13 0.355E-13   0.654E-04 0.911E-04 -.322E-04   0.788E-04 -.643E-04 0.561E-04
   -.103E-03 -.664E-04 0.682E-04   0.133E-12 0.426E-13 0.213E-13   -.155E-05 -.258E-04 0.804E-05   0.125E-03 0.416E-04 -.606E-04
   0.230E-04 -.138E-03 -.704E-04   0.996E-13 0.568E-13 0.345E-13   -.412E-04 0.468E-04 0.309E-05   0.681E-04 0.195E-04 -.154E-04
   -.147E-03 -.105E-03 0.963E-05   0.114E-12 0.284E-13 0.497E-13   -.630E-04 -.694E-04 0.608E-04   0.968E-04 0.103E-03 -.300E-04
   0.404E-04 -.563E-04 0.104E-03   0.142E-12 0.711E-13 0.497E-13   0.218E-04 0.183E-03 -.317E-05   -.465E-04 -.761E-04 -.575E-04
   0.610E-04 0.140E-03 -.643E-04   0.163E-12 0.426E-13 0.497E-13   0.178E-04 -.629E-04 -.237E-06   -.145E-04 -.482E-04 0.625E-04
   0.537E-04 0.629E-04 -.227E-04   0.149E-12 0.995E-13 0.355E-13   -.466E-05 -.204E-04 -.683E-05   -.767E-05 -.335E-04 0.317E-04
 -----------------------------------------------------------------------------------------------
   -.383E-03 0.103E-02 -.589E-03   0.575E-12 -.159E-12 0.900E-13   0.657E-03 -.492E-03 0.694E-03   -.342E-03 0.127E-03 0.103E-03
 
 
 POSITION                                       TOTAL-FORCE (eV/Angst)
 -----------------------------------------------------------------------------------
      0.00000      6.30969      0.00000         0.000186      0.000140      0.000099
      0.00000      0.00000      2.10323        -0.000098     -0.000101     -0.000158
      2.10323      6.30969      2.10323        -0.000053     -0.000230     -0.000069
      2.10323      0.00000      0.00000         0.000008     -0.000011      0.000029
      0.00000      6.30969      4.20646         0.000067      0.000027     -0.000217
      0.00000      0.00000      6.30969         0.000048      0.000120      0.000252
      2.10323      6.30969      6.30969        -0.000116     -0.000175      0.000109
      2.10323      0.00000      4.20646        -0.000060      0.000043     -0.000017
      0.00000      2.10323      0.00000        -0.000190     -0.000191     -0.000001
      0.00000      4.20646      2.10323        -0.000039      0.000003     -0.000156
      2.10323      2.10323      2.10323        -0.000079     -0.000012     -0.000022
      2.10323      4.20646      0.00000         0.000030      0.000035     -0.000081
      0.00000      2.10323      4.20646        -0.000079      0.000025      0.000134
      0.00000      4.20646      6.30969        -0.000224     -0.000026      0.000017
      2.10323      2.10323      6.30969         0.000204     -0.000183      0.000136
      2.10323      4.20646      4.20646        -0.000110     -0.000022      0.000029
      4.20646      6.30969      0.00000         0.000071     -0.000034      0.000097
      4.20646      0.00000      2.10323         0.000134     -0.000186     -0.000234
      6.30969      6.30969      2.10323        -0.000217      0.000072     -0.000146
      6.30969      0.00000      0.00000         0.000122      0.000207     -0.000142
      4.20646      6.30969      4.20646        -0.000068     -0.000026     -0.000196
      4.20646      0.00000      6.30969        -0.000193      0.000143      0.000104
      6.30969      6.30969      6.30969         0.000107      0.000222      0.000219
      6.30969      0.00000      4.20646         0.000072      0.000250      0.000255
      4.20646      2.10323      0.00000         0.000037      0.000089     -0.000076
      4.20646      4.20646      2.10323         0.000102      0.000025      0.000107
      6.30969      2.10323      2.10323         0.000221      0.000262      0.000227
      6.30969      4.20646      0.00000        -0.000007      0.000168      0.000102
      4.20646      2.10323      4.20646        -0.000093     -0.000069      0.000008
      4.20646      4.20646      6.30969         0.000052      0.000121     -0.000059
      6.30969      2.10323      6.30969         0.000012      0.000084     -0.000331
      6.30969      4.20646      4.20646         0.000055     -0.000262     -0.000050
      2.10323      6.30969      0.00000        -0.000012     -0.000006     -0.000026
      2.10323      0.00000      2.10323         0.000140     -0.000042      0.000091
      0.00000      6.30969      2.10323        -0.000061     -0.000007      0.000049
      0.00000      0.00000      0.00000         0.000169      0.000107      0.000046
      2.10323      6.30969      4.20646        -0.000036     -0.000048     -0.000047
      2.10323      0.00000      6.30969        -0.000134     -0.000085     -0.000158
      0.00000      6.30969      6.30969        -0.000004      0.000039      0.000008
      0.00000      0.00000      4.20646         0.000063     -0.000004      0.000026
      2.10323      2.10323      0.00000        -0.000008     -0.000039      0.000049
      2.10323      4.20646      2.10323        -0.000014      0.000031     -0.000126
      0.00000      2.10323      2.10323         0.000033      0.000000      0.000035
      0.00000      4.20646      0.00000         0.000029      0.000003     -0.000087
      2.10323      2.10323      4.20646         0.000052      0.000039      0.000023
      2.10323      4.20646      6.30969        -0.000112     -0.000140      0.000076
      0.00000      2.10323      6.30969         0.000113      0.000025      0.000024
      0.00000      4.20646      4.20646         0.000001     -0.000071     -0.000095
      6.30969      6.30969      0.00000        -0.000005      0.000044     -0.000024
      6.30969      0.00000      2.10323        -0.000018     -0.000045      0.000154
      4.20646      6.30969      2.10323         0.000031     -0.000092      0.000028
      4.20646      0.00000      0.00000         0.000071      0.000042      0.000008
      6.30969      6.30969      4.20646        -0.000057     -0.000051     -0.000011
      6.30969      0.00000      6.30969        -0.000095     -0.000041      0.000017
      4.20646      6.30969      6.30969        -0.000099      0.000001      0.000071
      4.20646      0.00000      4.20646         0.000049     -0.000083      0.000070
      6.30969      2.10323      0.00000         0.000014      0.000092     -0.000086
      6.30969      4.20646      2.10323        -0.000096     -0.000004     -0.000083
      4.20646      2.10323      2.10323         0.000021     -0.000061      0.000012
      4.20646      4.20646      0.00000         0.000051     -0.000082     -0.000086
      6.30969      2.10323      4.20646        -0.000112     -0.000081      0.000037
      6.30969      4.20646      6.30969         0.000017      0.000040      0.000040
      4.20646      2.10323      6.30969         0.000065      0.000018     -0.000005
      4.20646      4.20646      4.20646         0.000042     -0.000001     -0.000001
 -----------------------------------------------------------------------------------
    total drift:                               -0.000068      0.000665      0.000208


--------------------------------------------------------------------------------------------------------



  FREE ENERGIE OF THE ION-ELECTRON SYSTEM (eV)
  ---------------------------------------------------
  free  energy   TOTEN  =      -379.86566351 eV

  energy  without entropy=     -379.86566351  energy(sigma->0) =     -379.86566351
 


--------------------------------------------------------------------------------------------------------


    POTLOK:  cpu time    0.0981: real time    0.0984


--------------------------------------------------------------------------------------------------------


     LOOP+:  cpu time   52.5314: real time   52.9880
    4ORBIT:  cpu time    0.0000: real time    0.0000



 total charge

# of ion       s       p       d       tot
------------------------------------------
    1        2.071   6.013   0.041   8.125
    2        2.071   6.013   0.041   8.125
    3        2.071   6.013   0.041   8.125
    4        2.071   6.013   0.041   8.125
    5        2.071   6.013   0.041   8.125
    6        2.071   6.013   0.041   8.125
    7        2.071   6.013   0.041   8.125
    8        2.071   6.013   0.041   8.125
    9        2.071   6.013   0.041   8.125
   10        2.071   6.013   0.041   8.125
   11        2.071   6.013   0.041   8.125
   12        2.071   6.013   0.041   8.125
   13        2.071   6.013   0.041   8.125
   14        2.071   6.013   0.041   8.125
   15        2.071   6.013   0.041   8.125
   16        2.071   6.013   0.041   8.125
   17        2.071   6.013   0.041   8.125
   18        2.071   6.013   0.041   8.125
   19        2.071   6.013   0.041   8.125
   20        2.071   6.013   0.041   8.125
   21        2.071   6.013   0.041   8.125
   22        2.071   6.013   0.041   8.125
   23        2.071   6.013   0.041   8.125
   24        2.071   6.013   0.041   8.125
   25        2.071   6.013   0.041   8.125
   26        2.071   6.013   0.041   8.125
   27        2.071   6.013   0.041   8.125
   28        2.071   6.013   0.041   8.125
   29        2.071   6.013   0.041   8.125
   30        2.071   6.013   0.041   8.125
   31        2.071   6.013   0.041   8.125
   32        2.071   6.013   0.041   8.125
   33        1.544   3.564   0.000   5.108
   34        1.544   3.564   0.000   5.108
   35        1.544   3.564   0.000   5.108
   36        1.544   3.564   0.000   5.108
   37        1.544   3.564   0.000   5.108
   38        1.544   3.564   0.000   5.108
   39        1.544   3.564   0.000   5.108
   40        1.544   3.564   0.000   5.108
   41        1.544   3.564   0.000   5.108
   42        1.544   3.564   0.000   5.108
   43        1.544   3.564   0.000   5.108
   44        1.544   3.564   0.000   5.108
   45        1.544   3.564   0.000   5.108
   46        1.544   3.564   0.000   5.108
   47        1.544   3.564   0.000   5.108
   48        1.544   3.564   0.000   5.108
   49        1.544   3.564   0.000   5.108
   50        1.544   3.564   0.000   5.108
   51        1.544   3.564   0.000   5.108
   52        1.544   3.564   0.000   5.108
   53        1.544   3.564   0.000   5.108
   54        1.544   3.564   0.000   5.108
   55        1.544   3.564   0.000   5.108
   56        1.544   3.564   0.000   5.108
   57        1.544   3.564   0.000   5.108
   58        1.544   3.564   0.000   5.108
   59        1.544   3.564   0.000   5.108
   60        1.544   3.564   0.000   5.108
   61        1.544   3.564   0.000   5.108
   62        1.544   3.564   0.000   5.108
   63        1.544   3.564   0.000   5.108
   64        1.544   3.564   0.000   5.108
--------------------------------------------------
tot        115.682 306.438   1.321 423.441
 

 total amount of memory used by VASP MPI-rank0    42116. kBytes
=======================================================================

   base      :      30000. kBytes
   nonlr-proj:       1740. kBytes
   fftplans  :        730. kBytes
   grid      :       1233. kBytes
   one-center:         16. kBytes
   wavefun   :       8397. kBytes
 
  
  
 General timing and accounting informations for this job:
 ========================================================
  
                  Total CPU time used (sec):       59.533
                            User time (sec):       58.793
                          System time (sec):        0.740
                         Elapsed time (sec):       61.031
  
                   Maximum memory used (kb):      396736.
                   Average memory used (kb):          N/A
  
                          Minor page faults:        75249
                          Major page faults:           97
                 Voluntary context switches:         2739
