 **********************************************************************
                          MRCC program system
 **********************************************************************
 
                              Written by
 Mihaly Kallay, Peter R. Nagy, David Mester, Zoltan Rolik, Gyula Samu,
   Jozsef Csontos, Jozsef Csoka, P. Bernat Szabo, Laszlo Gyevi-Nagy,
    Bence Hegely, Istvan Ladjanszki, Lorant Szegedy, Bence Ladoczki,
       Klara Petrov, Mate Farkas, Pal D. Mezei, and Adam Ganyecz
 
        Department of Physical Chemistry and Materials Science
            Budapest University of Technology and Economics
                  Budapest P.O.Box 91, H-1521 Hungary
 
                              www.mrcc.hu
 
                    Release date: February 22, 2020

 ************************ 2021-12-02 04:54:05 *************************
 Executing minp...

 Reading input from MINP...
 
 Input file:
 
calc=SCF
dft=SCAN
scftype=rks
verbosity=3
mem=490GB
symm=off
unit=angs
scfiguess=small
scfmaxit=1000

charge=-82
basis=special
def2-QZVPP
def2-QZVPP
def2-QZVPP
def2-QZVPP
def2-QZVPP
def2-QZVPP
def2-QZVPP
def2-QZVPP
def2-QZVPP
def2-QZVPP
def2-QZVPP
def2-QZVPP
def2-QZVPP
def2-QZVPP
def2-QZVPP
def2-QZVPP
def2-QZVPP
def2-QZVPP
def2-QZVPP
def2-QZVPP
def2-QZVPP
def2-QZVPP
def2-QZVPP
def2-QZVPP
def2-QZVPP
def2-QZVPP
def2-QZVPP
def2-QZVPP
def2-QZVPP
def2-QZVPP
def2-QZVPP
def2-QZVPP
def2-QZVPP
def2-QZVPP
def2-QZVPP
def2-QZVPP
def2-QZVPP
def2-QZVPP
def2-QZVPP
def2-QZVPP
def2-QZVPP
def2-QZVPP
def2-QZVPP
def2-QZVPP
def2-QZVPP
def2-QZVPP
def2-QZVPP
def2-QZVPP
def2-QZVPP
def2-QZVPP
def2-QZVPP
def2-QZVPP
def2-QZVPP
def2-QZVPP
def2-QZVPP
def2-QZVPP
def2-QZVPP
def2-QZVPP
def2-QZVPP
def2-QZVPP
def2-QZVPP
def2-QZVPP
def2-QZVPP
def2-QZVPP
def2-QZVPP
def2-QZVPP
def2-QZVPP
def2-QZVPP
def2-QZVPP
def2-QZVPP
def2-QZVPP
def2-QZVPP
def2-QZVPP
def2-QZVPP
def2-QZVPP
def2-QZVPP
def2-QZVPP
def2-QZVPP
def2-QZVPP
def2-QZVPP
def2-QZVPP
def2-QZVPP
def2-QZVPP
def2-QZVPP
def2-QZVPP
def2-QZVPP
def2-QZVPP
def2-QZVPP
def2-QZVPP
def2-QZVPP
def2-QZVPP
def2-QZVPP
def2-QZVPP
def2-QZVPP
def2-QZVPP
def2-QZVPP
def2-QZVPP
def2-QZVPP
def2-QZVPP
def2-QZVPP
def2-QZVPP
def2-QZVPP
def2-QZVPP
def2-QZVPP
def2-QZVPP
def2-QZVPP
def2-QZVPP
def2-QZVPP
def2-QZVPP
def2-QZVPP
def2-QZVPP
def2-QZVPP
def2-QZVPP
def2-QZVPP
def2-QZVPP
def2-QZVPP
def2-QZVPP
nothing
nothing
nothing
nothing
nothing
nothing
nothing
nothing
nothing
nothing
nothing
nothing
nothing
nothing
nothing
nothing
nothing
nothing
nothing
nothing
nothing
nothing
nothing
nothing
nothing
nothing
nothing
nothing
nothing
nothing
nothing
nothing
nothing
nothing
nothing
nothing
nothing
nothing
nothing
nothing
nothing
nothing
nothing
nothing
nothing
nothing
nothing
nothing
nothing
nothing
nothing
nothing
nothing
nothing
nothing
nothing
nothing
nothing
nothing
nothing
nothing
nothing
nothing
nothing
nothing
nothing
nothing
nothing
nothing
nothing
nothing
nothing
nothing
nothing
nothing
nothing
nothing
nothing
nothing
nothing
nothing
nothing
nothing
nothing
nothing
nothing
nothing
nothing
nothing
nothing
nothing
nothing
nothing
nothing
nothing
nothing
nothing
nothing
nothing
nothing
nothing
nothing
nothing
nothing
nothing
nothing
nothing
nothing
nothing
nothing
nothing
nothing
nothing
nothing
nothing
nothing
nothing
nothing
nothing
nothing
nothing
nothing
nothing
nothing
nothing
nothing
nothing
nothing
nothing
nothing
nothing
nothing
nothing
nothing
nothing
nothing
nothing
nothing
nothing
nothing
nothing
nothing
nothing
nothing
nothing
nothing
nothing
nothing
nothing
nothing
nothing
nothing
nothing
nothing
nothing
nothing
nothing
nothing
nothing
nothing
nothing
nothing
nothing
nothing
nothing
nothing
nothing
nothing
nothing
nothing
nothing
nothing
nothing
nothing
nothing
nothing
nothing
nothing
nothing
nothing
nothing
nothing
nothing
nothing
nothing
nothing
nothing
nothing
nothing
nothing
nothing
nothing
nothing
nothing
nothing
nothing
nothing
nothing
nothing
nothing
nothing
nothing
nothing
nothing
nothing
nothing
nothing
nothing
nothing
nothing
nothing
nothing
nothing
nothing
nothing
nothing
nothing
nothing
nothing
nothing
nothing
nothing
nothing
nothing
nothing
nothing
nothing
nothing
nothing
nothing
nothing
nothing
nothing
nothing
nothing
nothing
nothing
nothing
nothing
nothing
nothing
nothing
nothing
nothing
nothing
nothing
nothing
nothing
nothing
nothing
nothing
nothing
nothing
nothing
nothing
nothing
nothing
nothing
nothing
nothing
nothing
nothing
nothing
nothing
nothing
nothing
nothing
nothing
nothing
nothing
nothing
nothing
nothing
nothing
nothing
nothing
nothing
nothing
nothing
nothing
nothing
nothing
nothing
nothing
nothing
nothing
nothing
nothing
nothing
nothing
nothing
nothing
nothing
nothing
nothing
nothing
nothing
nothing
nothing
nothing
nothing
nothing
nothing
nothing
nothing
nothing
nothing
nothing
nothing
nothing
nothing
nothing
nothing
nothing
nothing
nothing
nothing
nothing
nothing
nothing
nothing
nothing
nothing
nothing
nothing
nothing
nothing
nothing
nothing
nothing
nothing
nothing
nothing
nothing
nothing
nothing
nothing
nothing
nothing
nothing
nothing
nothing
nothing
nothing
nothing
nothing
nothing
nothing
nothing
nothing
nothing
nothing
nothing
nothing
nothing
nothing
nothing
nothing
nothing
nothing
nothing
nothing
nothing
nothing
nothing
nothing
nothing
nothing
nothing
nothing
nothing
nothing
nothing
nothing
nothing
nothing
nothing
nothing
nothing
nothing
nothing
nothing
nothing
nothing
nothing
nothing
nothing
nothing
nothing
nothing
nothing
nothing
nothing
nothing
nothing
nothing
nothing
nothing
nothing
nothing
nothing
nothing
nothing
nothing
nothing
nothing
nothing
nothing
nothing
nothing
nothing
nothing
nothing
nothing
nothing
nothing
nothing
nothing
nothing
nothing
nothing
nothing
nothing
nothing
nothing
nothing
nothing
nothing
nothing
nothing
nothing
nothing
nothing
nothing
nothing
nothing
nothing
nothing
nothing
nothing
nothing
nothing
nothing
nothing
nothing
nothing
nothing
nothing
nothing
nothing
nothing
nothing
nothing
nothing
nothing
nothing
nothing
nothing
nothing
nothing
nothing
nothing
nothing
nothing
nothing
nothing
nothing
nothing
nothing
nothing
nothing
nothing
nothing
nothing
nothing
nothing
nothing
nothing
nothing
nothing
nothing
nothing
nothing
nothing
nothing
nothing
nothing
nothing
nothing
nothing
nothing
nothing
nothing
nothing
nothing
nothing
nothing
nothing
nothing
nothing

basis_sm=special
STO-3G
STO-3G
STO-3G
STO-3G
STO-3G
STO-3G
STO-3G
STO-3G
STO-3G
STO-3G
STO-3G
STO-3G
STO-3G
STO-3G
STO-3G
STO-3G
STO-3G
STO-3G
STO-3G
STO-3G
STO-3G
STO-3G
STO-3G
STO-3G
STO-3G
STO-3G
STO-3G
STO-3G
STO-3G
STO-3G
STO-3G
STO-3G
STO-3G
STO-3G
STO-3G
STO-3G
STO-3G
STO-3G
STO-3G
STO-3G
STO-3G
STO-3G
STO-3G
STO-3G
STO-3G
STO-3G
STO-3G
STO-3G
STO-3G
STO-3G
STO-3G
STO-3G
STO-3G
STO-3G
STO-3G
STO-3G
STO-3G
STO-3G
STO-3G
STO-3G
STO-3G
STO-3G
STO-3G
STO-3G
STO-3G
STO-3G
STO-3G
STO-3G
STO-3G
STO-3G
STO-3G
STO-3G
STO-3G
STO-3G
STO-3G
STO-3G
STO-3G
STO-3G
STO-3G
STO-3G
STO-3G
STO-3G
STO-3G
STO-3G
STO-3G
STO-3G
STO-3G
STO-3G
STO-3G
STO-3G
STO-3G
STO-3G
STO-3G
STO-3G
STO-3G
STO-3G
STO-3G
STO-3G
STO-3G
STO-3G
STO-3G
STO-3G
STO-3G
STO-3G
STO-3G
STO-3G
STO-3G
STO-3G
STO-3G
STO-3G
STO-3G
STO-3G
STO-3G
STO-3G
STO-3G
STO-3G
STO-3G
nothing
nothing
nothing
nothing
nothing
nothing
nothing
nothing
nothing
nothing
nothing
nothing
nothing
nothing
nothing
nothing
nothing
nothing
nothing
nothing
nothing
nothing
nothing
nothing
nothing
nothing
nothing
nothing
nothing
nothing
nothing
nothing
nothing
nothing
nothing
nothing
nothing
nothing
nothing
nothing
nothing
nothing
nothing
nothing
nothing
nothing
nothing
nothing
nothing
nothing
nothing
nothing
nothing
nothing
nothing
nothing
nothing
nothing
nothing
nothing
nothing
nothing
nothing
nothing
nothing
nothing
nothing
nothing
nothing
nothing
nothing
nothing
nothing
nothing
nothing
nothing
nothing
nothing
nothing
nothing
nothing
nothing
nothing
nothing
nothing
nothing
nothing
nothing
nothing
nothing
nothing
nothing
nothing
nothing
nothing
nothing
nothing
nothing
nothing
nothing
nothing
nothing
nothing
nothing
nothing
nothing
nothing
nothing
nothing
nothing
nothing
nothing
nothing
nothing
nothing
nothing
nothing
nothing
nothing
nothing
nothing
nothing
nothing
nothing
nothing
nothing
nothing
nothing
nothing
nothing
nothing
nothing
nothing
nothing
nothing
nothing
nothing
nothing
nothing
nothing
nothing
nothing
nothing
nothing
nothing
nothing
nothing
nothing
nothing
nothing
nothing
nothing
nothing
nothing
nothing
nothing
nothing
nothing
nothing
nothing
nothing
nothing
nothing
nothing
nothing
nothing
nothing
nothing
nothing
nothing
nothing
nothing
nothing
nothing
nothing
nothing
nothing
nothing
nothing
nothing
nothing
nothing
nothing
nothing
nothing
nothing
nothing
nothing
nothing
nothing
nothing
nothing
nothing
nothing
nothing
nothing
nothing
nothing
nothing
nothing
nothing
nothing
nothing
nothing
nothing
nothing
nothing
nothing
nothing
nothing
nothing
nothing
nothing
nothing
nothing
nothing
nothing
nothing
nothing
nothing
nothing
nothing
nothing
nothing
nothing
nothing
nothing
nothing
nothing
nothing
nothing
nothing
nothing
nothing
nothing
nothing
nothing
nothing
nothing
nothing
nothing
nothing
nothing
nothing
nothing
nothing
nothing
nothing
nothing
nothing
nothing
nothing
nothing
nothing
nothing
nothing
nothing
nothing
nothing
nothing
nothing
nothing
nothing
nothing
nothing
nothing
nothing
nothing
nothing
nothing
nothing
nothing
nothing
nothing
nothing
nothing
nothing
nothing
nothing
nothing
nothing
nothing
nothing
nothing
nothing
nothing
nothing
nothing
nothing
nothing
nothing
nothing
nothing
nothing
nothing
nothing
nothing
nothing
nothing
nothing
nothing
nothing
nothing
nothing
nothing
nothing
nothing
nothing
nothing
nothing
nothing
nothing
nothing
nothing
nothing
nothing
nothing
nothing
nothing
nothing
nothing
nothing
nothing
nothing
nothing
nothing
nothing
nothing
nothing
nothing
nothing
nothing
nothing
nothing
nothing
nothing
nothing
nothing
nothing
nothing
nothing
nothing
nothing
nothing
nothing
nothing
nothing
nothing
nothing
nothing
nothing
nothing
nothing
nothing
nothing
nothing
nothing
nothing
nothing
nothing
nothing
nothing
nothing
nothing
nothing
nothing
nothing
nothing
nothing
nothing
nothing
nothing
nothing
nothing
nothing
nothing
nothing
nothing
nothing
nothing
nothing
nothing
nothing
nothing
nothing
nothing
nothing
nothing
nothing
nothing
nothing
nothing
nothing
nothing
nothing
nothing
nothing
nothing
nothing
nothing
nothing
nothing
nothing
nothing
nothing
nothing
nothing
nothing
nothing
nothing
nothing
nothing
nothing
nothing
nothing
nothing
nothing
nothing
nothing
nothing
nothing
nothing
nothing
nothing
nothing
nothing
nothing
nothing
nothing
nothing
nothing
nothing
nothing
nothing
nothing
nothing
nothing
nothing
nothing
nothing
nothing
nothing
nothing
nothing
nothing
nothing
nothing
nothing
nothing
nothing
nothing
nothing
nothing
nothing
nothing
nothing
nothing
nothing
nothing
nothing
nothing
nothing
nothing
nothing
nothing
nothing
nothing
nothing
nothing
nothing
nothing
nothing
nothing
nothing
nothing
nothing
nothing
nothing
nothing
nothing
nothing
nothing
nothing
nothing
nothing
nothing
nothing
nothing
nothing
nothing
nothing
nothing
nothing
nothing
nothing
nothing
nothing
nothing
nothing
nothing

dfbasis_scf=special
def2-QZVPP-RI-JK
def2-QZVPP-RI-JK
def2-QZVPP-RI-JK
def2-QZVPP-RI-JK
def2-QZVPP-RI-JK
def2-QZVPP-RI-JK
def2-QZVPP-RI-JK
def2-QZVPP-RI-JK
def2-QZVPP-RI-JK
def2-QZVPP-RI-JK
def2-QZVPP-RI-JK
def2-QZVPP-RI-JK
def2-QZVPP-RI-JK
def2-QZVPP-RI-JK
def2-QZVPP-RI-JK
def2-QZVPP-RI-JK
def2-QZVPP-RI-JK
def2-QZVPP-RI-JK
def2-QZVPP-RI-JK
def2-QZVPP-RI-JK
def2-QZVPP-RI-JK
def2-QZVPP-RI-JK
def2-QZVPP-RI-JK
def2-QZVPP-RI-JK
def2-QZVPP-RI-JK
def2-QZVPP-RI-JK
def2-QZVPP-RI-JK
def2-QZVPP-RI-JK
def2-QZVPP-RI-JK
def2-QZVPP-RI-JK
def2-QZVPP-RI-JK
def2-QZVPP-RI-JK
def2-QZVPP-RI-JK
def2-QZVPP-RI-JK
def2-QZVPP-RI-JK
def2-QZVPP-RI-JK
def2-QZVPP-RI-JK
def2-QZVPP-RI-JK
def2-QZVPP-RI-JK
def2-QZVPP-RI-JK
def2-QZVPP-RI-JK
def2-QZVPP-RI-JK
def2-QZVPP-RI-JK
def2-QZVPP-RI-JK
def2-QZVPP-RI-JK
def2-QZVPP-RI-JK
def2-QZVPP-RI-JK
def2-QZVPP-RI-JK
def2-QZVPP-RI-JK
def2-QZVPP-RI-JK
def2-QZVPP-RI-JK
def2-QZVPP-RI-JK
def2-QZVPP-RI-JK
def2-QZVPP-RI-JK
def2-QZVPP-RI-JK
def2-QZVPP-RI-JK
def2-QZVPP-RI-JK
def2-QZVPP-RI-JK
def2-QZVPP-RI-JK
def2-QZVPP-RI-JK
def2-QZVPP-RI-JK
def2-QZVPP-RI-JK
def2-QZVPP-RI-JK
def2-QZVPP-RI-JK
def2-QZVPP-RI-JK
def2-QZVPP-RI-JK
def2-QZVPP-RI-JK
def2-QZVPP-RI-JK
def2-QZVPP-RI-JK
def2-QZVPP-RI-JK
def2-QZVPP-RI-JK
def2-QZVPP-RI-JK
def2-QZVPP-RI-JK
def2-QZVPP-RI-JK
def2-QZVPP-RI-JK
def2-QZVPP-RI-JK
def2-QZVPP-RI-JK
def2-QZVPP-RI-JK
def2-QZVPP-RI-JK
def2-QZVPP-RI-JK
def2-QZVPP-RI-JK
def2-QZVPP-RI-JK
def2-QZVPP-RI-JK
def2-QZVPP-RI-JK
def2-QZVPP-RI-JK
def2-QZVPP-RI-JK
def2-QZVPP-RI-JK
def2-QZVPP-RI-JK
def2-QZVPP-RI-JK
def2-QZVPP-RI-JK
def2-QZVPP-RI-JK
def2-QZVPP-RI-JK
def2-QZVPP-RI-JK
def2-QZVPP-RI-JK
def2-QZVPP-RI-JK
def2-QZVPP-RI-JK
def2-QZVPP-RI-JK
def2-QZVPP-RI-JK
def2-QZVPP-RI-JK
def2-QZVPP-RI-JK
def2-QZVPP-RI-JK
def2-QZVPP-RI-JK
def2-QZVPP-RI-JK
def2-QZVPP-RI-JK
def2-QZVPP-RI-JK
def2-QZVPP-RI-JK
def2-QZVPP-RI-JK
def2-QZVPP-RI-JK
def2-QZVPP-RI-JK
def2-QZVPP-RI-JK
def2-QZVPP-RI-JK
def2-QZVPP-RI-JK
def2-QZVPP-RI-JK
def2-QZVPP-RI-JK
def2-QZVPP-RI-JK
def2-QZVPP-RI-JK
def2-QZVPP-RI-JK
nothing
nothing
nothing
nothing
nothing
nothing
nothing
nothing
nothing
nothing
nothing
nothing
nothing
nothing
nothing
nothing
nothing
nothing
nothing
nothing
nothing
nothing
nothing
nothing
nothing
nothing
nothing
nothing
nothing
nothing
nothing
nothing
nothing
nothing
nothing
nothing
nothing
nothing
nothing
nothing
nothing
nothing
nothing
nothing
nothing
nothing
nothing
nothing
nothing
nothing
nothing
nothing
nothing
nothing
nothing
nothing
nothing
nothing
nothing
nothing
nothing
nothing
nothing
nothing
nothing
nothing
nothing
nothing
nothing
nothing
nothing
nothing
nothing
nothing
nothing
nothing
nothing
nothing
nothing
nothing
nothing
nothing
nothing
nothing
nothing
nothing
nothing
nothing
nothing
nothing
nothing
nothing
nothing
nothing
nothing
nothing
nothing
nothing
nothing
nothing
nothing
nothing
nothing
nothing
nothing
nothing
nothing
nothing
nothing
nothing
nothing
nothing
nothing
nothing
nothing
nothing
nothing
nothing
nothing
nothing
nothing
nothing
nothing
nothing
nothing
nothing
nothing
nothing
nothing
nothing
nothing
nothing
nothing
nothing
nothing
nothing
nothing
nothing
nothing
nothing
nothing
nothing
nothing
nothing
nothing
nothing
nothing
nothing
nothing
nothing
nothing
nothing
nothing
nothing
nothing
nothing
nothing
nothing
nothing
nothing
nothing
nothing
nothing
nothing
nothing
nothing
nothing
nothing
nothing
nothing
nothing
nothing
nothing
nothing
nothing
nothing
nothing
nothing
nothing
nothing
nothing
nothing
nothing
nothing
nothing
nothing
nothing
nothing
nothing
nothing
nothing
nothing
nothing
nothing
nothing
nothing
nothing
nothing
nothing
nothing
nothing
nothing
nothing
nothing
nothing
nothing
nothing
nothing
nothing
nothing
nothing
nothing
nothing
nothing
nothing
nothing
nothing
nothing
nothing
nothing
nothing
nothing
nothing
nothing
nothing
nothing
nothing
nothing
nothing
nothing
nothing
nothing
nothing
nothing
nothing
nothing
nothing
nothing
nothing
nothing
nothing
nothing
nothing
nothing
nothing
nothing
nothing
nothing
nothing
nothing
nothing
nothing
nothing
nothing
nothing
nothing
nothing
nothing
nothing
nothing
nothing
nothing
nothing
nothing
nothing
nothing
nothing
nothing
nothing
nothing
nothing
nothing
nothing
nothing
nothing
nothing
nothing
nothing
nothing
nothing
nothing
nothing
nothing
nothing
nothing
nothing
nothing
nothing
nothing
nothing
nothing
nothing
nothing
nothing
nothing
nothing
nothing
nothing
nothing
nothing
nothing
nothing
nothing
nothing
nothing
nothing
nothing
nothing
nothing
nothing
nothing
nothing
nothing
nothing
nothing
nothing
nothing
nothing
nothing
nothing
nothing
nothing
nothing
nothing
nothing
nothing
nothing
nothing
nothing
nothing
nothing
nothing
nothing
nothing
nothing
nothing
nothing
nothing
nothing
nothing
nothing
nothing
nothing
nothing
nothing
nothing
nothing
nothing
nothing
nothing
nothing
nothing
nothing
nothing
nothing
nothing
nothing
nothing
nothing
nothing
nothing
nothing
nothing
nothing
nothing
nothing
nothing
nothing
nothing
nothing
nothing
nothing
nothing
nothing
nothing
nothing
nothing
nothing
nothing
nothing
nothing
nothing
nothing
nothing
nothing
nothing
nothing
nothing
nothing
nothing
nothing
nothing
nothing
nothing
nothing
nothing
nothing
nothing
nothing
nothing
nothing
nothing
nothing
nothing
nothing
nothing
nothing
nothing
nothing
nothing
nothing
nothing
nothing
nothing
nothing
nothing
nothing
nothing
nothing
nothing
nothing
nothing
nothing
nothing
nothing
nothing
nothing
nothing
nothing
nothing
nothing
nothing
nothing
nothing
nothing
nothing
nothing
nothing
nothing
nothing
nothing
nothing
nothing
nothing
nothing
nothing
nothing
nothing
nothing
nothing
nothing
nothing
nothing
nothing
nothing
nothing
nothing
nothing
nothing
nothing
nothing
nothing
nothing
nothing
nothing
nothing
nothing
nothing
nothing
nothing
nothing
nothing
nothing
nothing
nothing
nothing
nothing
nothing
nothing
nothing
nothing
nothing
nothing
nothing
nothing
nothing
nothing
nothing
nothing
nothing
nothing
nothing
nothing
nothing
nothing
nothing
nothing
nothing
nothing
nothing

ecp=special
none
none
none
none
none
none
none
none
none
none
none
none
none
none
none
none
none
none
none
none
none
none
none
none
none
none
none
none
none
none
none
none
none
none
none
none
none
none
none
none
none
none
none
none
none
none
none
none
none
none
none
none
none
none
none
none
none
none
none
none
none
none
none
none
none
none
none
none
none
none
none
none
none
none
none
none
none
none
none
none
none
none
none
none
none
none
none
none
none
none
none
none
none
none
none
none
none
none
none
none
none
none
none
none
none
none
none
none
none
none
none
none
none
none
none
none
none
ECP-12
ECP-12
ECP-12
ECP-12
ECP-12
ECP-12
ECP-12
ECP-12
ECP-12
ECP-12
ECP-12
ECP-12
ECP-12
ECP-12
ECP-12
ECP-12
ECP-12
ECP-12
ECP-12
ECP-12
ECP-12
ECP-12
ECP-12
ECP-12
ECP-12
ECP-12
ECP-12
ECP-12
ECP-12
ECP-12
ECP-12
ECP-12
ECP-12
ECP-12
ECP-12
ECP-12
ECP-12
ECP-12
ECP-12
ECP-12
ECP-12
ECP-12
ECP-12
ECP-12
ECP-12
ECP-12
ECP-12
ECP-12
ECP-12
ECP-12
ECP-12
ECP-12
ECP-12
ECP-12
ECP-12
ECP-12
ECP-12
ECP-12
ECP-12
ECP-12
ECP-12
ECP-12
ECP-12
ECP-12
ECP-12
ECP-12
ECP-12
ECP-12
ECP-12
ECP-12
ECP-12
ECP-12
ECP-12
ECP-12
ECP-12
ECP-12
ECP-12
ECP-12
ECP-12
ECP-12
ECP-12
ECP-12
ECP-12
ECP-12
ECP-12
ECP-12
ECP-12
ECP-12
ECP-12
ECP-12
ECP-12
ECP-12
ECP-12
ECP-12
ECP-12
ECP-12
ECP-12
ECP-12
ECP-12
ECP-12
ECP-12
ECP-12
ECP-12
ECP-12
ECP-12
ECP-12
ECP-12
ECP-12
ECP-12
ECP-12
ECP-12
ECP-12
ECP-12
ECP-12
ECP-12
ECP-12
ECP-12
ECP-12
ECP-12
ECP-12
ECP-12
ECP-12
ECP-12
ECP-12
ECP-12
ECP-12
ECP-12
ECP-12
ECP-12
ECP-12
ECP-12
ECP-12
ECP-12
ECP-12
ECP-12
ECP-12
ECP-12
ECP-12
ECP-12
ECP-12
ECP-12
ECP-12
ECP-12
ECP-12
ECP-12
ECP-12
ECP-12
ECP-12
ECP-12
ECP-12
ECP-12
ECP-12
ECP-12
ECP-12
ECP-12
ECP-12
ECP-12
ECP-12
ECP-12
ECP-12
ECP-12
ECP-12
ECP-12
ECP-12
ECP-12
ECP-12
ECP-12
ECP-12
ECP-12
ECP-12
ECP-12
ECP-12
ECP-12
ECP-12
ECP-12
ECP-12
ECP-12
ECP-12
ECP-12
ECP-12
ECP-12
ECP-12
ECP-12
ECP-12
ECP-12
ECP-12
ECP-12
ECP-12
ECP-12
ECP-12
ECP-12
ECP-12
ECP-12
ECP-12
ECP-12
ECP-12
ECP-12
ECP-12
ECP-12
ECP-12
ECP-12
ECP-12
ECP-12
ECP-12
ECP-12
ECP-12
ECP-12
ECP-12
ECP-12
ECP-12
ECP-12
ECP-12
ECP-12
ECP-12
ECP-12
ECP-12
ECP-12
ECP-12
ECP-12
ECP-12
ECP-12
ECP-12
ECP-12
ECP-12
ECP-12
ECP-12
ECP-12
ECP-12
ECP-12
ECP-12
ECP-12
ECP-12
ECP-12
ECP-12
ECP-12
ECP-12
ECP-12
ECP-12
ECP-12
ECP-12
ECP-12
ECP-12
ECP-12
ECP-12
ECP-12
ECP-12
ECP-12
ECP-12
ECP-12
ECP-12
ECP-12
ECP-12
ECP-12
ECP-12
ECP-12
ECP-12
ECP-12
ECP-12
ECP-12
ECP-12
ECP-12
ECP-12
ECP-12
ECP-12
ECP-12
ECP-12
ECP-12
ECP-12
ECP-12
ECP-12
ECP-12
ECP-12
ECP-12
ECP-12
ECP-12
ECP-12
ECP-12
ECP-12
ECP-12
ECP-12
ECP-12
ECP-12
ECP-12
ECP-12
ECP-12
ECP-12
ECP-12
ECP-12
ECP-12
ECP-12
ECP-12
ECP-12
ECP-12
ECP-12
ECP-12
ECP-12
ECP-12
ECP-12
ECP-12
ECP-12
ECP-12
ECP-12
ECP-12
ECP-12
ECP-12
ECP-12
ECP-12
ECP-12
ECP-12
ECP-12
ECP-12
ECP-12
ECP-12
ECP-12
ECP-12
ECP-12
ECP-12
ECP-12
ECP-12
ECP-12
ECP-12
ECP-12
ECP-12
ECP-12
ECP-12
ECP-12
ECP-12
ECP-12
ECP-12
ECP-12
ECP-12
ECP-12
ECP-12
ECP-12
ECP-12
ECP-12
ECP-12
ECP-12
ECP-12
ECP-12
ECP-12
ECP-12
ECP-12
ECP-12
ECP-12
ECP-12
ECP-12
ECP-12
ECP-12
ECP-12
ECP-12
ECP-12
ECP-12
ECP-12
ECP-12
ECP-12
ECP-12
ECP-12
ECP-12
ECP-12
ECP-12
ECP-12
ECP-12
ECP-12
ECP-12
ECP-12
ECP-12
ECP-12
ECP-12
ECP-12
ECP-12
ECP-12
ECP-12
ECP-12
ECP-12
ECP-12
ECP-12
ECP-12
ECP-12
ECP-12
ECP-12
ECP-12
ECP-12
ECP-12
ECP-12
ECP-12
ECP-12
ECP-12
ECP-12
ECP-12
ECP-12
ECP-12
ECP-12
ECP-12
ECP-12
ECP-12
ECP-12
ECP-12
ECP-12
ECP-12
ECP-12
ECP-12
ECP-12
ECP-12
ECP-12
ECP-12
ECP-12
ECP-12
ECP-12
ECP-12
ECP-12
ECP-12
ECP-12
ECP-12
ECP-12
ECP-12
ECP-12
ECP-12
ECP-12
ECP-12
ECP-12
ECP-12
ECP-12
ECP-12
ECP-12
ECP-12
ECP-12
ECP-12
ECP-12
ECP-12
ECP-12
ECP-12
ECP-12
ECP-12
ECP-12
ECP-12
ECP-12
ECP-12
ECP-12
ECP-12
ECP-12
ECP-12
ECP-12
ECP-12
ECP-12
ECP-12
ECP-12
ECP-12
ECP-12
ECP-12
ECP-12
ECP-12
ECP-12
ECP-12
ECP-12
ECP-12
ECP-12
ECP-12
ECP-12
ECP-12
ECP-12
ECP-12
ECP-12
ECP-12
ECP-12
ECP-12
ECP-12
ECP-12
ECP-12
ECP-12
ECP-12
ECP-12
ECP-12
ECP-12
ECP-12
ECP-12
ECP-12
ECP-12
ECP-12
ECP-12
ECP-12
ECP-12
ECP-12
ECP-12
ECP-12
ECP-12
ECP-12
ECP-12
ECP-12
ECP-12
ECP-12
ECP-12
ECP-12
ECP-12
ECP-12
ECP-12
ECP-12
ECP-12
ECP-12
ECP-12

unit=angs
geom=xyz
617
Mg38O79ECP500
O     0.00000000000    0.00000000000    0.00000000000
Mg    0.00000000000    0.00000000000    2.10322906414
Mg   -2.10322906414    0.00000000000    0.00000000000
Mg    0.00000000000    2.10322906414    0.00000000000
Mg    2.10322906414    0.00000000000    0.00000000000
Mg    0.00000000000   -2.10322906414    0.00000000000
Mg    0.00000000000    0.00000000000   -2.10322906414
O    -2.10322906414    0.00000000000    2.10322906414
O     0.00000000000    2.10322906414    2.10322906414
O     2.10322906414    0.00000000000    2.10322906414
O     0.00000000000   -2.10322906414    2.10322906414
O    -2.10322906414    2.10322906414    0.00000000000
O     2.10322906414    2.10322906414    0.00000000000
O     2.10322906414   -2.10322906414    0.00000000000
O    -2.10322906414   -2.10322906414    0.00000000000
O    -2.10322906414    0.00000000000   -2.10322906414
O     0.00000000000    2.10322906414   -2.10322906414
O     2.10322906414    0.00000000000   -2.10322906414
O     0.00000000000   -2.10322906414   -2.10322906414
Mg   -2.10322906414    2.10322906414    2.10322906414
Mg    2.10322906414    2.10322906414    2.10322906414
Mg    2.10322906414   -2.10322906414    2.10322906414
Mg   -2.10322906414   -2.10322906414    2.10322906414
Mg   -2.10322906414    2.10322906414   -2.10322906414
Mg    2.10322906414    2.10322906414   -2.10322906414
Mg    2.10322906414   -2.10322906414   -2.10322906414
Mg   -2.10322906414   -2.10322906414   -2.10322906414
O     0.00000000000    0.00000000000    4.20645812828
O    -4.20645812828    0.00000000000    0.00000000000
O     0.00000000000    4.20645812828    0.00000000000
O     4.20645812828    0.00000000000    0.00000000000
O     0.00000000000   -4.20645812828    0.00000000000
O     0.00000000000    0.00000000000   -4.20645812828
Mg   -2.10322906414    0.00000000000    4.20645812828
Mg    0.00000000000    2.10322906414    4.20645812828
Mg    2.10322906414    0.00000000000    4.20645812828
Mg    0.00000000000   -2.10322906414    4.20645812828
Mg   -4.20645812828    0.00000000000    2.10322906414
Mg    0.00000000000    4.20645812828    2.10322906414
Mg    4.20645812828    0.00000000000    2.10322906414
Mg    0.00000000000   -4.20645812828    2.10322906414
Mg   -4.20645812828    2.10322906414    0.00000000000
Mg   -2.10322906414    4.20645812828    0.00000000000
Mg    2.10322906414    4.20645812828    0.00000000000
Mg    4.20645812828    2.10322906414    0.00000000000
Mg    4.20645812828   -2.10322906414    0.00000000000
Mg    2.10322906414   -4.20645812828    0.00000000000
Mg   -2.10322906414   -4.20645812828    0.00000000000
Mg   -4.20645812828   -2.10322906414    0.00000000000
Mg   -4.20645812828    0.00000000000   -2.10322906414
Mg    0.00000000000    4.20645812828   -2.10322906414
Mg    4.20645812828    0.00000000000   -2.10322906414
Mg    0.00000000000   -4.20645812828   -2.10322906414
Mg   -2.10322906414    0.00000000000   -4.20645812828
Mg    0.00000000000    2.10322906414   -4.20645812828
Mg    2.10322906414    0.00000000000   -4.20645812828
Mg    0.00000000000   -2.10322906414   -4.20645812828
O    -2.10322906414    2.10322906414    4.20645812828
O     2.10322906414    2.10322906414    4.20645812828
O     2.10322906414   -2.10322906414    4.20645812828
O    -2.10322906414   -2.10322906414    4.20645812828
O    -4.20645812828    2.10322906414    2.10322906414
O    -2.10322906414    4.20645812828    2.10322906414
O     2.10322906414    4.20645812828    2.10322906414
O     4.20645812828    2.10322906414    2.10322906414
O     4.20645812828   -2.10322906414    2.10322906414
O     2.10322906414   -4.20645812828    2.10322906414
O    -2.10322906414   -4.20645812828    2.10322906414
O    -4.20645812828   -2.10322906414    2.10322906414
O    -4.20645812828    2.10322906414   -2.10322906414
O    -2.10322906414    4.20645812828   -2.10322906414
O     2.10322906414    4.20645812828   -2.10322906414
O     4.20645812828    2.10322906414   -2.10322906414
O     4.20645812828   -2.10322906414   -2.10322906414
O     2.10322906414   -4.20645812828   -2.10322906414
O    -2.10322906414   -4.20645812828   -2.10322906414
O    -4.20645812828   -2.10322906414   -2.10322906414
O    -2.10322906414    2.10322906414   -4.20645812828
O     2.10322906414    2.10322906414   -4.20645812828
O     2.10322906414   -2.10322906414   -4.20645812828
O    -2.10322906414   -2.10322906414   -4.20645812828
O    -4.20645812828    0.00000000000    4.20645812828
O     0.00000000000    4.20645812828    4.20645812828
O     4.20645812828    0.00000000000    4.20645812828
O     0.00000000000   -4.20645812828    4.20645812828
O    -4.20645812828    4.20645812828    0.00000000000
O     4.20645812828    4.20645812828    0.00000000000
O     4.20645812828   -4.20645812828    0.00000000000
O    -4.20645812828   -4.20645812828    0.00000000000
O    -4.20645812828    0.00000000000   -4.20645812828
O     0.00000000000    4.20645812828   -4.20645812828
O     4.20645812828    0.00000000000   -4.20645812828
O     0.00000000000   -4.20645812828   -4.20645812828
O    -2.10322906414    0.00000000000    6.30968719243
O     0.00000000000    2.10322906414    6.30968719243
O     2.10322906414    0.00000000000    6.30968719243
O     0.00000000000   -2.10322906414    6.30968719243
O    -6.30968719243    0.00000000000    2.10322906414
O     0.00000000000    6.30968719243    2.10322906414
O     6.30968719243    0.00000000000    2.10322906414
O     0.00000000000   -6.30968719243    2.10322906414
O    -6.30968719243    2.10322906414    0.00000000000
O    -2.10322906414    6.30968719243    0.00000000000
O     2.10322906414    6.30968719243    0.00000000000
O     6.30968719243    2.10322906414    0.00000000000
O     6.30968719243   -2.10322906414    0.00000000000
O     2.10322906414   -6.30968719243    0.00000000000
O    -2.10322906414   -6.30968719243    0.00000000000
O    -6.30968719243   -2.10322906414    0.00000000000
O    -6.30968719243    0.00000000000   -2.10322906414
O     0.00000000000    6.30968719243   -2.10322906414
O     6.30968719243    0.00000000000   -2.10322906414
O     0.00000000000   -6.30968719243   -2.10322906414
O    -2.10322906414    0.00000000000   -6.30968719243
O     0.00000000000    2.10322906414   -6.30968719243
O     2.10322906414    0.00000000000   -6.30968719243
O     0.00000000000   -2.10322906414   -6.30968719243
Mg    0.00000000000    0.00000000000    6.30968719243
Mg   -4.20645812828    2.10322906414    4.20645812828
Mg   -2.10322906414    4.20645812828    4.20645812828
Mg    2.10322906414    4.20645812828    4.20645812828
Mg    4.20645812828    2.10322906414    4.20645812828
Mg    4.20645812828   -2.10322906414    4.20645812828
Mg    2.10322906414   -4.20645812828    4.20645812828
Mg   -2.10322906414   -4.20645812828    4.20645812828
Mg   -4.20645812828   -2.10322906414    4.20645812828
Mg   -4.20645812828    4.20645812828    2.10322906414
Mg    4.20645812828    4.20645812828    2.10322906414
Mg    4.20645812828   -4.20645812828    2.10322906414
Mg   -4.20645812828   -4.20645812828    2.10322906414
Mg   -6.30968719243    0.00000000000    0.00000000000
Mg    0.00000000000    6.30968719243    0.00000000000
Mg    6.30968719243    0.00000000000    0.00000000000
Mg    0.00000000000   -6.30968719243    0.00000000000
Mg   -4.20645812828    4.20645812828   -2.10322906414
Mg    4.20645812828    4.20645812828   -2.10322906414
Mg    4.20645812828   -4.20645812828   -2.10322906414
Mg   -4.20645812828   -4.20645812828   -2.10322906414
Mg   -4.20645812828    2.10322906414   -4.20645812828
Mg   -2.10322906414    4.20645812828   -4.20645812828
Mg    2.10322906414    4.20645812828   -4.20645812828
Mg    4.20645812828    2.10322906414   -4.20645812828
Mg    4.20645812828   -2.10322906414   -4.20645812828
Mg    2.10322906414   -4.20645812828   -4.20645812828
Mg   -2.10322906414   -4.20645812828   -4.20645812828
Mg   -4.20645812828   -2.10322906414   -4.20645812828
Mg    0.00000000000    0.00000000000   -6.30968719243
Mg   -2.10322906414    2.10322906414    6.30968719243
Mg    2.10322906414    2.10322906414    6.30968719243
Mg    2.10322906414   -2.10322906414    6.30968719243
Mg   -2.10322906414   -2.10322906414    6.30968719243
Mg   -6.30968719243    2.10322906414    2.10322906414
Mg   -2.10322906414    6.30968719243    2.10322906414
Mg    2.10322906414    6.30968719243    2.10322906414
Mg    6.30968719243    2.10322906414    2.10322906414
Mg    6.30968719243   -2.10322906414    2.10322906414
Mg    2.10322906414   -6.30968719243    2.10322906414
Mg   -2.10322906414   -6.30968719243    2.10322906414
Mg   -6.30968719243   -2.10322906414    2.10322906414
Mg   -6.30968719243    2.10322906414   -2.10322906414
Mg   -2.10322906414    6.30968719243   -2.10322906414
Mg    2.10322906414    6.30968719243   -2.10322906414
Mg    6.30968719243    2.10322906414   -2.10322906414
Mg    6.30968719243   -2.10322906414   -2.10322906414
Mg    2.10322906414   -6.30968719243   -2.10322906414
Mg   -2.10322906414   -6.30968719243   -2.10322906414
Mg   -6.30968719243   -2.10322906414   -2.10322906414
Mg   -2.10322906414    2.10322906414   -6.30968719243
Mg    2.10322906414    2.10322906414   -6.30968719243
Mg    2.10322906414   -2.10322906414   -6.30968719243
Mg   -2.10322906414   -2.10322906414   -6.30968719243
Mg   -4.20645812828    0.00000000000    6.30968719243
Mg    0.00000000000    4.20645812828    6.30968719243
Mg    4.20645812828    0.00000000000    6.30968719243
Mg    0.00000000000   -4.20645812828    6.30968719243
Mg   -6.30968719243    0.00000000000    4.20645812828
Mg    0.00000000000    6.30968719243    4.20645812828
Mg    6.30968719243    0.00000000000    4.20645812828
Mg    0.00000000000   -6.30968719243    4.20645812828
Mg   -6.30968719243    4.20645812828    0.00000000000
Mg   -4.20645812828    6.30968719243    0.00000000000
Mg    4.20645812828    6.30968719243    0.00000000000
Mg    6.30968719243    4.20645812828    0.00000000000
Mg    6.30968719243   -4.20645812828    0.00000000000
Mg    4.20645812828   -6.30968719243    0.00000000000
Mg   -4.20645812828   -6.30968719243    0.00000000000
Mg   -6.30968719243   -4.20645812828    0.00000000000
Mg   -6.30968719243    0.00000000000   -4.20645812828
Mg    0.00000000000    6.30968719243   -4.20645812828
Mg    6.30968719243    0.00000000000   -4.20645812828
Mg    0.00000000000   -6.30968719243   -4.20645812828
Mg   -4.20645812828    0.00000000000   -6.30968719243
Mg    0.00000000000    4.20645812828   -6.30968719243
Mg    4.20645812828    0.00000000000   -6.30968719243
Mg    0.00000000000   -4.20645812828   -6.30968719243
Mg   -2.10322906414    0.00000000000    8.41291625657
Mg    0.00000000000    2.10322906414    8.41291625657
Mg    2.10322906414    0.00000000000    8.41291625657
Mg    0.00000000000   -2.10322906414    8.41291625657
Mg   -4.20645812828    4.20645812828    6.30968719243
Mg    4.20645812828    4.20645812828    6.30968719243
Mg    4.20645812828   -4.20645812828    6.30968719243
Mg   -4.20645812828   -4.20645812828    6.30968719243
Mg   -6.30968719243    4.20645812828    4.20645812828
Mg   -4.20645812828    6.30968719243    4.20645812828
Mg    4.20645812828    6.30968719243    4.20645812828
Mg    6.30968719243    4.20645812828    4.20645812828
Mg    6.30968719243   -4.20645812828    4.20645812828
Mg    4.20645812828   -6.30968719243    4.20645812828
Mg   -4.20645812828   -6.30968719243    4.20645812828
Mg   -6.30968719243   -4.20645812828    4.20645812828
Mg   -8.41291625657    0.00000000000    2.10322906414
Mg    0.00000000000    8.41291625657    2.10322906414
Mg    8.41291625657    0.00000000000    2.10322906414
Mg    0.00000000000   -8.41291625657    2.10322906414
Mg   -8.41291625657    2.10322906414    0.00000000000
Mg   -2.10322906414    8.41291625657    0.00000000000
Mg    2.10322906414    8.41291625657    0.00000000000
Mg    8.41291625657    2.10322906414    0.00000000000
Mg    8.41291625657   -2.10322906414    0.00000000000
Mg    2.10322906414   -8.41291625657    0.00000000000
Mg   -2.10322906414   -8.41291625657    0.00000000000
Mg   -8.41291625657   -2.10322906414    0.00000000000
Mg   -8.41291625657    0.00000000000   -2.10322906414
Mg    0.00000000000    8.41291625657   -2.10322906414
Mg    8.41291625657    0.00000000000   -2.10322906414
Mg    0.00000000000   -8.41291625657   -2.10322906414
Mg   -6.30968719243    4.20645812828   -4.20645812828
Mg   -4.20645812828    6.30968719243   -4.20645812828
Mg    4.20645812828    6.30968719243   -4.20645812828
Mg    6.30968719243    4.20645812828   -4.20645812828
Mg    6.30968719243   -4.20645812828   -4.20645812828
Mg    4.20645812828   -6.30968719243   -4.20645812828
Mg   -4.20645812828   -6.30968719243   -4.20645812828
Mg   -6.30968719243   -4.20645812828   -4.20645812828
Mg   -4.20645812828    4.20645812828   -6.30968719243
Mg    4.20645812828    4.20645812828   -6.30968719243
Mg    4.20645812828   -4.20645812828   -6.30968719243
Mg   -4.20645812828   -4.20645812828   -6.30968719243
Mg   -2.10322906414    0.00000000000   -8.41291625657
Mg    0.00000000000    2.10322906414   -8.41291625657
Mg    2.10322906414    0.00000000000   -8.41291625657
Mg    0.00000000000   -2.10322906414   -8.41291625657
Mg   -6.30968719243    2.10322906414    6.30968719243
Mg   -2.10322906414    6.30968719243    6.30968719243
Mg    2.10322906414    6.30968719243    6.30968719243
Mg    6.30968719243    2.10322906414    6.30968719243
Mg    6.30968719243   -2.10322906414    6.30968719243
Mg    2.10322906414   -6.30968719243    6.30968719243
Mg   -2.10322906414   -6.30968719243    6.30968719243
Mg   -6.30968719243   -2.10322906414    6.30968719243
Mg   -6.30968719243    6.30968719243    2.10322906414
Mg    6.30968719243    6.30968719243    2.10322906414
Mg    6.30968719243   -6.30968719243    2.10322906414
Mg   -6.30968719243   -6.30968719243    2.10322906414
Mg   -6.30968719243    6.30968719243   -2.10322906414
Mg    6.30968719243    6.30968719243   -2.10322906414
Mg    6.30968719243   -6.30968719243   -2.10322906414
Mg   -6.30968719243   -6.30968719243   -2.10322906414
Mg   -6.30968719243    2.10322906414   -6.30968719243
Mg   -2.10322906414    6.30968719243   -6.30968719243
Mg    2.10322906414    6.30968719243   -6.30968719243
Mg    6.30968719243    2.10322906414   -6.30968719243
Mg    6.30968719243   -2.10322906414   -6.30968719243
Mg    2.10322906414   -6.30968719243   -6.30968719243
Mg   -2.10322906414   -6.30968719243   -6.30968719243
Mg   -6.30968719243   -2.10322906414   -6.30968719243
Mg   -4.20645812828    2.10322906414    8.41291625657
Mg   -2.10322906414    4.20645812828    8.41291625657
Mg    2.10322906414    4.20645812828    8.41291625657
Mg    4.20645812828    2.10322906414    8.41291625657
Mg    4.20645812828   -2.10322906414    8.41291625657
Mg    2.10322906414   -4.20645812828    8.41291625657
Mg   -2.10322906414   -4.20645812828    8.41291625657
Mg   -4.20645812828   -2.10322906414    8.41291625657
Mg   -8.41291625657    2.10322906414    4.20645812828
Mg   -2.10322906414    8.41291625657    4.20645812828
Mg    2.10322906414    8.41291625657    4.20645812828
Mg    8.41291625657    2.10322906414    4.20645812828
Mg    8.41291625657   -2.10322906414    4.20645812828
Mg    2.10322906414   -8.41291625657    4.20645812828
Mg   -2.10322906414   -8.41291625657    4.20645812828
Mg   -8.41291625657   -2.10322906414    4.20645812828
Mg   -8.41291625657    4.20645812828    2.10322906414
Mg   -4.20645812828    8.41291625657    2.10322906414
Mg    4.20645812828    8.41291625657    2.10322906414
Mg    8.41291625657    4.20645812828    2.10322906414
Mg    8.41291625657   -4.20645812828    2.10322906414
Mg    4.20645812828   -8.41291625657    2.10322906414
Mg   -4.20645812828   -8.41291625657    2.10322906414
Mg   -8.41291625657   -4.20645812828    2.10322906414
Mg   -8.41291625657    4.20645812828   -2.10322906414
Mg   -4.20645812828    8.41291625657   -2.10322906414
Mg    4.20645812828    8.41291625657   -2.10322906414
Mg    8.41291625657    4.20645812828   -2.10322906414
Mg    8.41291625657   -4.20645812828   -2.10322906414
Mg    4.20645812828   -8.41291625657   -2.10322906414
Mg   -4.20645812828   -8.41291625657   -2.10322906414
Mg   -8.41291625657   -4.20645812828   -2.10322906414
Mg   -8.41291625657    2.10322906414   -4.20645812828
Mg   -2.10322906414    8.41291625657   -4.20645812828
Mg    2.10322906414    8.41291625657   -4.20645812828
Mg    8.41291625657    2.10322906414   -4.20645812828
Mg    8.41291625657   -2.10322906414   -4.20645812828
Mg    2.10322906414   -8.41291625657   -4.20645812828
Mg   -2.10322906414   -8.41291625657   -4.20645812828
Mg   -8.41291625657   -2.10322906414   -4.20645812828
Mg   -4.20645812828    2.10322906414   -8.41291625657
Mg   -2.10322906414    4.20645812828   -8.41291625657
Mg    2.10322906414    4.20645812828   -8.41291625657
Mg    4.20645812828    2.10322906414   -8.41291625657
Mg    4.20645812828   -2.10322906414   -8.41291625657
Mg    2.10322906414   -4.20645812828   -8.41291625657
Mg   -2.10322906414   -4.20645812828   -8.41291625657
Mg   -4.20645812828   -2.10322906414   -8.41291625657
Mg    0.00000000000    0.00000000000   10.51614532071
Mg   -6.30968719243    0.00000000000    8.41291625657
Mg    0.00000000000    6.30968719243    8.41291625657
Mg    6.30968719243    0.00000000000    8.41291625657
Mg    0.00000000000   -6.30968719243    8.41291625657
Mg   -8.41291625657    0.00000000000    6.30968719243
Mg    0.00000000000    8.41291625657    6.30968719243
Mg    8.41291625657    0.00000000000    6.30968719243
Mg    0.00000000000   -8.41291625657    6.30968719243
Mg  -10.51614532071    0.00000000000    0.00000000000
Mg   -8.41291625657    6.30968719243    0.00000000000
Mg   -6.30968719243    8.41291625657    0.00000000000
Mg    0.00000000000   10.51614532071    0.00000000000
Mg    6.30968719243    8.41291625657    0.00000000000
Mg    8.41291625657    6.30968719243    0.00000000000
Mg   10.51614532071    0.00000000000    0.00000000000
Mg    8.41291625657   -6.30968719243    0.00000000000
Mg    6.30968719243   -8.41291625657    0.00000000000
Mg    0.00000000000  -10.51614532071    0.00000000000
Mg   -6.30968719243   -8.41291625657    0.00000000000
Mg   -8.41291625657   -6.30968719243    0.00000000000
Mg   -8.41291625657    0.00000000000   -6.30968719243
Mg    0.00000000000    8.41291625657   -6.30968719243
Mg    8.41291625657    0.00000000000   -6.30968719243
Mg    0.00000000000   -8.41291625657   -6.30968719243
Mg   -6.30968719243    0.00000000000   -8.41291625657
Mg    0.00000000000    6.30968719243   -8.41291625657
Mg    6.30968719243    0.00000000000   -8.41291625657
Mg    0.00000000000   -6.30968719243   -8.41291625657
Mg    0.00000000000    0.00000000000  -10.51614532071
Mg   -2.10322906414    2.10322906414   10.51614532071
Mg    2.10322906414    2.10322906414   10.51614532071
Mg    2.10322906414   -2.10322906414   10.51614532071
Mg   -2.10322906414   -2.10322906414   10.51614532071
Mg   -6.30968719243    6.30968719243    6.30968719243
Mg    6.30968719243    6.30968719243    6.30968719243
Mg    6.30968719243   -6.30968719243    6.30968719243
Mg   -6.30968719243   -6.30968719243    6.30968719243
Mg  -10.51614532071    2.10322906414    2.10322906414
Mg   -2.10322906414   10.51614532071    2.10322906414
Mg    2.10322906414   10.51614532071    2.10322906414
Mg   10.51614532071    2.10322906414    2.10322906414
Mg   10.51614532071   -2.10322906414    2.10322906414
Mg    2.10322906414  -10.51614532071    2.10322906414
Mg   -2.10322906414  -10.51614532071    2.10322906414
Mg  -10.51614532071   -2.10322906414    2.10322906414
Mg  -10.51614532071    2.10322906414   -2.10322906414
Mg   -2.10322906414   10.51614532071   -2.10322906414
Mg    2.10322906414   10.51614532071   -2.10322906414
Mg   10.51614532071    2.10322906414   -2.10322906414
Mg   10.51614532071   -2.10322906414   -2.10322906414
Mg    2.10322906414  -10.51614532071   -2.10322906414
Mg   -2.10322906414  -10.51614532071   -2.10322906414
Mg  -10.51614532071   -2.10322906414   -2.10322906414
Mg   -6.30968719243    6.30968719243   -6.30968719243
Mg    6.30968719243    6.30968719243   -6.30968719243
Mg    6.30968719243   -6.30968719243   -6.30968719243
Mg   -6.30968719243   -6.30968719243   -6.30968719243
Mg   -2.10322906414    2.10322906414  -10.51614532071
Mg    2.10322906414    2.10322906414  -10.51614532071
Mg    2.10322906414   -2.10322906414  -10.51614532071
Mg   -2.10322906414   -2.10322906414  -10.51614532071
Mg   -4.20645812828    0.00000000000   10.51614532071
Mg    0.00000000000    4.20645812828   10.51614532071
Mg    4.20645812828    0.00000000000   10.51614532071
Mg    0.00000000000   -4.20645812828   10.51614532071
Mg   -6.30968719243    4.20645812828    8.41291625657
Mg   -4.20645812828    6.30968719243    8.41291625657
Mg    4.20645812828    6.30968719243    8.41291625657
Mg    6.30968719243    4.20645812828    8.41291625657
Mg    6.30968719243   -4.20645812828    8.41291625657
Mg    4.20645812828   -6.30968719243    8.41291625657
Mg   -4.20645812828   -6.30968719243    8.41291625657
Mg   -6.30968719243   -4.20645812828    8.41291625657
Mg   -8.41291625657    4.20645812828    6.30968719243
Mg   -4.20645812828    8.41291625657    6.30968719243
Mg    4.20645812828    8.41291625657    6.30968719243
Mg    8.41291625657    4.20645812828    6.30968719243
Mg    8.41291625657   -4.20645812828    6.30968719243
Mg    4.20645812828   -8.41291625657    6.30968719243
Mg   -4.20645812828   -8.41291625657    6.30968719243
Mg   -8.41291625657   -4.20645812828    6.30968719243
Mg  -10.51614532071    0.00000000000    4.20645812828
Mg   -8.41291625657    6.30968719243    4.20645812828
Mg   -6.30968719243    8.41291625657    4.20645812828
Mg    0.00000000000   10.51614532071    4.20645812828
Mg    6.30968719243    8.41291625657    4.20645812828
Mg    8.41291625657    6.30968719243    4.20645812828
Mg   10.51614532071    0.00000000000    4.20645812828
Mg    8.41291625657   -6.30968719243    4.20645812828
Mg    6.30968719243   -8.41291625657    4.20645812828
Mg    0.00000000000  -10.51614532071    4.20645812828
Mg   -6.30968719243   -8.41291625657    4.20645812828
Mg   -8.41291625657   -6.30968719243    4.20645812828
Mg  -10.51614532071    4.20645812828    0.00000000000
Mg   -4.20645812828   10.51614532071    0.00000000000
Mg    4.20645812828   10.51614532071    0.00000000000
Mg   10.51614532071    4.20645812828    0.00000000000
Mg   10.51614532071   -4.20645812828    0.00000000000
Mg    4.20645812828  -10.51614532071    0.00000000000
Mg   -4.20645812828  -10.51614532071    0.00000000000
Mg  -10.51614532071   -4.20645812828    0.00000000000
Mg  -10.51614532071    0.00000000000   -4.20645812828
Mg   -8.41291625657    6.30968719243   -4.20645812828
Mg   -6.30968719243    8.41291625657   -4.20645812828
Mg    0.00000000000   10.51614532071   -4.20645812828
Mg    6.30968719243    8.41291625657   -4.20645812828
Mg    8.41291625657    6.30968719243   -4.20645812828
Mg   10.51614532071    0.00000000000   -4.20645812828
Mg    8.41291625657   -6.30968719243   -4.20645812828
Mg    6.30968719243   -8.41291625657   -4.20645812828
Mg    0.00000000000  -10.51614532071   -4.20645812828
Mg   -6.30968719243   -8.41291625657   -4.20645812828
Mg   -8.41291625657   -6.30968719243   -4.20645812828
Mg   -8.41291625657    4.20645812828   -6.30968719243
Mg   -4.20645812828    8.41291625657   -6.30968719243
Mg    4.20645812828    8.41291625657   -6.30968719243
Mg    8.41291625657    4.20645812828   -6.30968719243
Mg    8.41291625657   -4.20645812828   -6.30968719243
Mg    4.20645812828   -8.41291625657   -6.30968719243
Mg   -4.20645812828   -8.41291625657   -6.30968719243
Mg   -8.41291625657   -4.20645812828   -6.30968719243
Mg   -6.30968719243    4.20645812828   -8.41291625657
Mg   -4.20645812828    6.30968719243   -8.41291625657
Mg    4.20645812828    6.30968719243   -8.41291625657
Mg    6.30968719243    4.20645812828   -8.41291625657
Mg    6.30968719243   -4.20645812828   -8.41291625657
Mg    4.20645812828   -6.30968719243   -8.41291625657
Mg   -4.20645812828   -6.30968719243   -8.41291625657
Mg   -6.30968719243   -4.20645812828   -8.41291625657
Mg   -4.20645812828    0.00000000000  -10.51614532071
Mg    0.00000000000    4.20645812828  -10.51614532071
Mg    4.20645812828    0.00000000000  -10.51614532071
Mg    0.00000000000   -4.20645812828  -10.51614532071
Mg   -4.20645812828    4.20645812828   10.51614532071
Mg    4.20645812828    4.20645812828   10.51614532071
Mg    4.20645812828   -4.20645812828   10.51614532071
Mg   -4.20645812828   -4.20645812828   10.51614532071
Mg   -8.41291625657    2.10322906414    8.41291625657
Mg   -2.10322906414    8.41291625657    8.41291625657
Mg    2.10322906414    8.41291625657    8.41291625657
Mg    8.41291625657    2.10322906414    8.41291625657
Mg    8.41291625657   -2.10322906414    8.41291625657
Mg    2.10322906414   -8.41291625657    8.41291625657
Mg   -2.10322906414   -8.41291625657    8.41291625657
Mg   -8.41291625657   -2.10322906414    8.41291625657
Mg  -10.51614532071    4.20645812828    4.20645812828
Mg   -4.20645812828   10.51614532071    4.20645812828
Mg    4.20645812828   10.51614532071    4.20645812828
Mg   10.51614532071    4.20645812828    4.20645812828
Mg   10.51614532071   -4.20645812828    4.20645812828
Mg    4.20645812828  -10.51614532071    4.20645812828
Mg   -4.20645812828  -10.51614532071    4.20645812828
Mg  -10.51614532071   -4.20645812828    4.20645812828
Mg   -8.41291625657    8.41291625657    2.10322906414
Mg    8.41291625657    8.41291625657    2.10322906414
Mg    8.41291625657   -8.41291625657    2.10322906414
Mg   -8.41291625657   -8.41291625657    2.10322906414
Mg   -8.41291625657    8.41291625657   -2.10322906414
Mg    8.41291625657    8.41291625657   -2.10322906414
Mg    8.41291625657   -8.41291625657   -2.10322906414
Mg   -8.41291625657   -8.41291625657   -2.10322906414
Mg  -10.51614532071    4.20645812828   -4.20645812828
Mg   -4.20645812828   10.51614532071   -4.20645812828
Mg    4.20645812828   10.51614532071   -4.20645812828
Mg   10.51614532071    4.20645812828   -4.20645812828
Mg   10.51614532071   -4.20645812828   -4.20645812828
Mg    4.20645812828  -10.51614532071   -4.20645812828
Mg   -4.20645812828  -10.51614532071   -4.20645812828
Mg  -10.51614532071   -4.20645812828   -4.20645812828
Mg   -8.41291625657    2.10322906414   -8.41291625657
Mg   -2.10322906414    8.41291625657   -8.41291625657
Mg    2.10322906414    8.41291625657   -8.41291625657
Mg    8.41291625657    2.10322906414   -8.41291625657
Mg    8.41291625657   -2.10322906414   -8.41291625657
Mg    2.10322906414   -8.41291625657   -8.41291625657
Mg   -2.10322906414   -8.41291625657   -8.41291625657
Mg   -8.41291625657   -2.10322906414   -8.41291625657
Mg   -4.20645812828    4.20645812828  -10.51614532071
Mg    4.20645812828    4.20645812828  -10.51614532071
Mg    4.20645812828   -4.20645812828  -10.51614532071
Mg   -4.20645812828   -4.20645812828  -10.51614532071
Mg   -6.30968719243    2.10322906414   10.51614532071
Mg   -2.10322906414    6.30968719243   10.51614532071
Mg    2.10322906414    6.30968719243   10.51614532071
Mg    6.30968719243    2.10322906414   10.51614532071
Mg    6.30968719243   -2.10322906414   10.51614532071
Mg    2.10322906414   -6.30968719243   10.51614532071
Mg   -2.10322906414   -6.30968719243   10.51614532071
Mg   -6.30968719243   -2.10322906414   10.51614532071
Mg  -10.51614532071    2.10322906414    6.30968719243
Mg   -2.10322906414   10.51614532071    6.30968719243
Mg    2.10322906414   10.51614532071    6.30968719243
Mg   10.51614532071    2.10322906414    6.30968719243
Mg   10.51614532071   -2.10322906414    6.30968719243
Mg    2.10322906414  -10.51614532071    6.30968719243
Mg   -2.10322906414  -10.51614532071    6.30968719243
Mg  -10.51614532071   -2.10322906414    6.30968719243
Mg  -10.51614532071    6.30968719243    2.10322906414
Mg   -6.30968719243   10.51614532071    2.10322906414
Mg    6.30968719243   10.51614532071    2.10322906414
Mg   10.51614532071    6.30968719243    2.10322906414
Mg   10.51614532071   -6.30968719243    2.10322906414
Mg    6.30968719243  -10.51614532071    2.10322906414
Mg   -6.30968719243  -10.51614532071    2.10322906414
Mg  -10.51614532071   -6.30968719243    2.10322906414
Mg  -10.51614532071    6.30968719243   -2.10322906414
Mg   -6.30968719243   10.51614532071   -2.10322906414
Mg    6.30968719243   10.51614532071   -2.10322906414
Mg   10.51614532071    6.30968719243   -2.10322906414
Mg   10.51614532071   -6.30968719243   -2.10322906414
Mg    6.30968719243  -10.51614532071   -2.10322906414
Mg   -6.30968719243  -10.51614532071   -2.10322906414
Mg  -10.51614532071   -6.30968719243   -2.10322906414
Mg  -10.51614532071    2.10322906414   -6.30968719243
Mg   -2.10322906414   10.51614532071   -6.30968719243
Mg    2.10322906414   10.51614532071   -6.30968719243
Mg   10.51614532071    2.10322906414   -6.30968719243
Mg   10.51614532071   -2.10322906414   -6.30968719243
Mg    2.10322906414  -10.51614532071   -6.30968719243
Mg   -2.10322906414  -10.51614532071   -6.30968719243
Mg  -10.51614532071   -2.10322906414   -6.30968719243
Mg   -6.30968719243    2.10322906414  -10.51614532071
Mg   -2.10322906414    6.30968719243  -10.51614532071
Mg    2.10322906414    6.30968719243  -10.51614532071
Mg    6.30968719243    2.10322906414  -10.51614532071
Mg    6.30968719243   -2.10322906414  -10.51614532071
Mg    2.10322906414   -6.30968719243  -10.51614532071
Mg   -2.10322906414   -6.30968719243  -10.51614532071
Mg   -6.30968719243   -2.10322906414  -10.51614532071
Mg   -2.10322906414    0.00000000000   12.61937438485
Mg    0.00000000000    2.10322906414   12.61937438485
Mg    2.10322906414    0.00000000000   12.61937438485
Mg    0.00000000000   -2.10322906414   12.61937438485
Mg  -12.61937438485    0.00000000000    2.10322906414
Mg    0.00000000000   12.61937438485    2.10322906414
Mg   12.61937438485    0.00000000000    2.10322906414
Mg    0.00000000000  -12.61937438485    2.10322906414
Mg  -12.61937438485    2.10322906414    0.00000000000
Mg   -2.10322906414   12.61937438485    0.00000000000
Mg    2.10322906414   12.61937438485    0.00000000000
Mg   12.61937438485    2.10322906414    0.00000000000
Mg   12.61937438485   -2.10322906414    0.00000000000
Mg    2.10322906414  -12.61937438485    0.00000000000
Mg   -2.10322906414  -12.61937438485    0.00000000000
Mg  -12.61937438485   -2.10322906414    0.00000000000
Mg  -12.61937438485    0.00000000000   -2.10322906414
Mg    0.00000000000   12.61937438485   -2.10322906414
Mg   12.61937438485    0.00000000000   -2.10322906414
Mg    0.00000000000  -12.61937438485   -2.10322906414
Mg   -2.10322906414    0.00000000000  -12.61937438485
Mg    0.00000000000    2.10322906414  -12.61937438485
Mg    2.10322906414    0.00000000000  -12.61937438485
Mg    0.00000000000   -2.10322906414  -12.61937438485
Mg   -4.20645812828    2.10322906414   12.61937438485
Mg   -2.10322906414    4.20645812828   12.61937438485
Mg    2.10322906414    4.20645812828   12.61937438485
Mg    4.20645812828    2.10322906414   12.61937438485
Mg    4.20645812828   -2.10322906414   12.61937438485
Mg    2.10322906414   -4.20645812828   12.61937438485
Mg   -2.10322906414   -4.20645812828   12.61937438485
Mg   -4.20645812828   -2.10322906414   12.61937438485
Mg  -12.61937438485    2.10322906414    4.20645812828
Mg   -2.10322906414   12.61937438485    4.20645812828
Mg    2.10322906414   12.61937438485    4.20645812828
Mg   12.61937438485    2.10322906414    4.20645812828
Mg   12.61937438485   -2.10322906414    4.20645812828
Mg    2.10322906414  -12.61937438485    4.20645812828
Mg   -2.10322906414  -12.61937438485    4.20645812828
Mg  -12.61937438485   -2.10322906414    4.20645812828
Mg  -12.61937438485    4.20645812828    2.10322906414
Mg   -4.20645812828   12.61937438485    2.10322906414
Mg    4.20645812828   12.61937438485    2.10322906414
Mg   12.61937438485    4.20645812828    2.10322906414
Mg   12.61937438485   -4.20645812828    2.10322906414
Mg    4.20645812828  -12.61937438485    2.10322906414
Mg   -4.20645812828  -12.61937438485    2.10322906414
Mg  -12.61937438485   -4.20645812828    2.10322906414
Mg  -12.61937438485    4.20645812828   -2.10322906414
Mg   -4.20645812828   12.61937438485   -2.10322906414
Mg    4.20645812828   12.61937438485   -2.10322906414
Mg   12.61937438485    4.20645812828   -2.10322906414
Mg   12.61937438485   -4.20645812828   -2.10322906414
Mg    4.20645812828  -12.61937438485   -2.10322906414
Mg   -4.20645812828  -12.61937438485   -2.10322906414
Mg  -12.61937438485   -4.20645812828   -2.10322906414
Mg  -12.61937438485    2.10322906414   -4.20645812828
Mg   -2.10322906414   12.61937438485   -4.20645812828
Mg    2.10322906414   12.61937438485   -4.20645812828
Mg   12.61937438485    2.10322906414   -4.20645812828
Mg   12.61937438485   -2.10322906414   -4.20645812828
Mg    2.10322906414  -12.61937438485   -4.20645812828
Mg   -2.10322906414  -12.61937438485   -4.20645812828
Mg  -12.61937438485   -2.10322906414   -4.20645812828
Mg   -4.20645812828    2.10322906414  -12.61937438485
Mg   -2.10322906414    4.20645812828  -12.61937438485
Mg    2.10322906414    4.20645812828  -12.61937438485
Mg    4.20645812828    2.10322906414  -12.61937438485
Mg    4.20645812828   -2.10322906414  -12.61937438485
Mg    2.10322906414   -4.20645812828  -12.61937438485
Mg   -2.10322906414   -4.20645812828  -12.61937438485
Mg   -4.20645812828   -2.10322906414  -12.61937438485

qmmm=Amber
pointcharges
12032
      0.00000000000    0.00000000000    6.30968719243    2.00000000000
     -4.20645812828    2.10322906414    4.20645812828    2.00000000000
     -2.10322906414    4.20645812828    4.20645812828    2.00000000000
      2.10322906414    4.20645812828    4.20645812828    2.00000000000
      4.20645812828    2.10322906414    4.20645812828    2.00000000000
      4.20645812828   -2.10322906414    4.20645812828    2.00000000000
      2.10322906414   -4.20645812828    4.20645812828    2.00000000000
     -2.10322906414   -4.20645812828    4.20645812828    2.00000000000
     -4.20645812828   -2.10322906414    4.20645812828    2.00000000000
     -4.20645812828    4.20645812828    2.10322906414    2.00000000000
      4.20645812828    4.20645812828    2.10322906414    2.00000000000
      4.20645812828   -4.20645812828    2.10322906414    2.00000000000
     -4.20645812828   -4.20645812828    2.10322906414    2.00000000000
     -6.30968719243    0.00000000000    0.00000000000    2.00000000000
      0.00000000000    6.30968719243    0.00000000000    2.00000000000
      6.30968719243    0.00000000000    0.00000000000    2.00000000000
      0.00000000000   -6.30968719243    0.00000000000    2.00000000000
     -4.20645812828    4.20645812828   -2.10322906414    2.00000000000
      4.20645812828    4.20645812828   -2.10322906414    2.00000000000
      4.20645812828   -4.20645812828   -2.10322906414    2.00000000000
     -4.20645812828   -4.20645812828   -2.10322906414    2.00000000000
     -4.20645812828    2.10322906414   -4.20645812828    2.00000000000
     -2.10322906414    4.20645812828   -4.20645812828    2.00000000000
      2.10322906414    4.20645812828   -4.20645812828    2.00000000000
      4.20645812828    2.10322906414   -4.20645812828    2.00000000000
      4.20645812828   -2.10322906414   -4.20645812828    2.00000000000
      2.10322906414   -4.20645812828   -4.20645812828    2.00000000000
     -2.10322906414   -4.20645812828   -4.20645812828    2.00000000000
     -4.20645812828   -2.10322906414   -4.20645812828    2.00000000000
      0.00000000000    0.00000000000   -6.30968719243    2.00000000000
     -2.10322906414    2.10322906414    6.30968719243    2.00000000000
      2.10322906414    2.10322906414    6.30968719243    2.00000000000
      2.10322906414   -2.10322906414    6.30968719243    2.00000000000
     -2.10322906414   -2.10322906414    6.30968719243    2.00000000000
     -6.30968719243    2.10322906414    2.10322906414    2.00000000000
     -2.10322906414    6.30968719243    2.10322906414    2.00000000000
      2.10322906414    6.30968719243    2.10322906414    2.00000000000
      6.30968719243    2.10322906414    2.10322906414    2.00000000000
      6.30968719243   -2.10322906414    2.10322906414    2.00000000000
      2.10322906414   -6.30968719243    2.10322906414    2.00000000000
     -2.10322906414   -6.30968719243    2.10322906414    2.00000000000
     -6.30968719243   -2.10322906414    2.10322906414    2.00000000000
     -6.30968719243    2.10322906414   -2.10322906414    2.00000000000
     -2.10322906414    6.30968719243   -2.10322906414    2.00000000000
      2.10322906414    6.30968719243   -2.10322906414    2.00000000000
      6.30968719243    2.10322906414   -2.10322906414    2.00000000000
      6.30968719243   -2.10322906414   -2.10322906414    2.00000000000
      2.10322906414   -6.30968719243   -2.10322906414    2.00000000000
     -2.10322906414   -6.30968719243   -2.10322906414    2.00000000000
     -6.30968719243   -2.10322906414   -2.10322906414    2.00000000000
     -2.10322906414    2.10322906414   -6.30968719243    2.00000000000
      2.10322906414    2.10322906414   -6.30968719243    2.00000000000
      2.10322906414   -2.10322906414   -6.30968719243    2.00000000000
     -2.10322906414   -2.10322906414   -6.30968719243    2.00000000000
     -4.20645812828    4.20645812828    4.20645812828   -2.00000000000
      4.20645812828    4.20645812828    4.20645812828   -2.00000000000
      4.20645812828   -4.20645812828    4.20645812828   -2.00000000000
     -4.20645812828   -4.20645812828    4.20645812828   -2.00000000000
     -4.20645812828    4.20645812828   -4.20645812828   -2.00000000000
      4.20645812828    4.20645812828   -4.20645812828   -2.00000000000
      4.20645812828   -4.20645812828   -4.20645812828   -2.00000000000
     -4.20645812828   -4.20645812828   -4.20645812828   -2.00000000000
     -4.20645812828    0.00000000000    6.30968719243    2.00000000000
      0.00000000000    4.20645812828    6.30968719243    2.00000000000
      4.20645812828    0.00000000000    6.30968719243    2.00000000000
      0.00000000000   -4.20645812828    6.30968719243    2.00000000000
     -6.30968719243    0.00000000000    4.20645812828    2.00000000000
      0.00000000000    6.30968719243    4.20645812828    2.00000000000
      6.30968719243    0.00000000000    4.20645812828    2.00000000000
      0.00000000000   -6.30968719243    4.20645812828    2.00000000000
     -6.30968719243    4.20645812828    0.00000000000    2.00000000000
     -4.20645812828    6.30968719243    0.00000000000    2.00000000000
      4.20645812828    6.30968719243    0.00000000000    2.00000000000
      6.30968719243    4.20645812828    0.00000000000    2.00000000000
      6.30968719243   -4.20645812828    0.00000000000    2.00000000000
      4.20645812828   -6.30968719243    0.00000000000    2.00000000000
     -4.20645812828   -6.30968719243    0.00000000000    2.00000000000
     -6.30968719243   -4.20645812828    0.00000000000    2.00000000000
     -6.30968719243    0.00000000000   -4.20645812828    2.00000000000
      0.00000000000    6.30968719243   -4.20645812828    2.00000000000
      6.30968719243    0.00000000000   -4.20645812828    2.00000000000
      0.00000000000   -6.30968719243   -4.20645812828    2.00000000000
     -4.20645812828    0.00000000000   -6.30968719243    2.00000000000
      0.00000000000    4.20645812828   -6.30968719243    2.00000000000
      4.20645812828    0.00000000000   -6.30968719243    2.00000000000
      0.00000000000   -4.20645812828   -6.30968719243    2.00000000000
     -4.20645812828    2.10322906414    6.30968719243   -2.00000000000
     -2.10322906414    4.20645812828    6.30968719243   -2.00000000000
      2.10322906414    4.20645812828    6.30968719243   -2.00000000000
      4.20645812828    2.10322906414    6.30968719243   -2.00000000000
      4.20645812828   -2.10322906414    6.30968719243   -2.00000000000
      2.10322906414   -4.20645812828    6.30968719243   -2.00000000000
     -2.10322906414   -4.20645812828    6.30968719243   -2.00000000000
     -4.20645812828   -2.10322906414    6.30968719243   -2.00000000000
     -6.30968719243    2.10322906414    4.20645812828   -2.00000000000
     -2.10322906414    6.30968719243    4.20645812828   -2.00000000000
      2.10322906414    6.30968719243    4.20645812828   -2.00000000000
      6.30968719243    2.10322906414    4.20645812828   -2.00000000000
      6.30968719243   -2.10322906414    4.20645812828   -2.00000000000
      2.10322906414   -6.30968719243    4.20645812828   -2.00000000000
     -2.10322906414   -6.30968719243    4.20645812828   -2.00000000000
     -6.30968719243   -2.10322906414    4.20645812828   -2.00000000000
     -6.30968719243    4.20645812828    2.10322906414   -2.00000000000
     -4.20645812828    6.30968719243    2.10322906414   -2.00000000000
      4.20645812828    6.30968719243    2.10322906414   -2.00000000000
      6.30968719243    4.20645812828    2.10322906414   -2.00000000000
      6.30968719243   -4.20645812828    2.10322906414   -2.00000000000
      4.20645812828   -6.30968719243    2.10322906414   -2.00000000000
     -4.20645812828   -6.30968719243    2.10322906414   -2.00000000000
     -6.30968719243   -4.20645812828    2.10322906414   -2.00000000000
     -6.30968719243    4.20645812828   -2.10322906414   -2.00000000000
     -4.20645812828    6.30968719243   -2.10322906414   -2.00000000000
      4.20645812828    6.30968719243   -2.10322906414   -2.00000000000
      6.30968719243    4.20645812828   -2.10322906414   -2.00000000000
      6.30968719243   -4.20645812828   -2.10322906414   -2.00000000000
      4.20645812828   -6.30968719243   -2.10322906414   -2.00000000000
     -4.20645812828   -6.30968719243   -2.10322906414   -2.00000000000
     -6.30968719243   -4.20645812828   -2.10322906414   -2.00000000000
     -6.30968719243    2.10322906414   -4.20645812828   -2.00000000000
     -2.10322906414    6.30968719243   -4.20645812828   -2.00000000000
      2.10322906414    6.30968719243   -4.20645812828   -2.00000000000
      6.30968719243    2.10322906414   -4.20645812828   -2.00000000000
      6.30968719243   -2.10322906414   -4.20645812828   -2.00000000000
      2.10322906414   -6.30968719243   -4.20645812828   -2.00000000000
     -2.10322906414   -6.30968719243   -4.20645812828   -2.00000000000
     -6.30968719243   -2.10322906414   -4.20645812828   -2.00000000000
     -4.20645812828    2.10322906414   -6.30968719243   -2.00000000000
     -2.10322906414    4.20645812828   -6.30968719243   -2.00000000000
      2.10322906414    4.20645812828   -6.30968719243   -2.00000000000
      4.20645812828    2.10322906414   -6.30968719243   -2.00000000000
      4.20645812828   -2.10322906414   -6.30968719243   -2.00000000000
      2.10322906414   -4.20645812828   -6.30968719243   -2.00000000000
     -2.10322906414   -4.20645812828   -6.30968719243   -2.00000000000
     -4.20645812828   -2.10322906414   -6.30968719243   -2.00000000000
      0.00000000000    0.00000000000    8.41291625657   -2.00000000000
     -8.41291625657    0.00000000000    0.00000000000   -2.00000000000
      0.00000000000    8.41291625657    0.00000000000   -2.00000000000
      8.41291625657    0.00000000000    0.00000000000   -2.00000000000
      0.00000000000   -8.41291625657    0.00000000000   -2.00000000000
      0.00000000000    0.00000000000   -8.41291625657   -2.00000000000
     -2.10322906414    0.00000000000    8.41291625657    2.00000000000
      0.00000000000    2.10322906414    8.41291625657    2.00000000000
      2.10322906414    0.00000000000    8.41291625657    2.00000000000
      0.00000000000   -2.10322906414    8.41291625657    2.00000000000
     -4.20645812828    4.20645812828    6.30968719243    2.00000000000
      4.20645812828    4.20645812828    6.30968719243    2.00000000000
      4.20645812828   -4.20645812828    6.30968719243    2.00000000000
     -4.20645812828   -4.20645812828    6.30968719243    2.00000000000
     -6.30968719243    4.20645812828    4.20645812828    2.00000000000
     -4.20645812828    6.30968719243    4.20645812828    2.00000000000
      4.20645812828    6.30968719243    4.20645812828    2.00000000000
      6.30968719243    4.20645812828    4.20645812828    2.00000000000
      6.30968719243   -4.20645812828    4.20645812828    2.00000000000
      4.20645812828   -6.30968719243    4.20645812828    2.00000000000
     -4.20645812828   -6.30968719243    4.20645812828    2.00000000000
     -6.30968719243   -4.20645812828    4.20645812828    2.00000000000
     -8.41291625657    0.00000000000    2.10322906414    2.00000000000
      0.00000000000    8.41291625657    2.10322906414    2.00000000000
      8.41291625657    0.00000000000    2.10322906414    2.00000000000
      0.00000000000   -8.41291625657    2.10322906414    2.00000000000
     -8.41291625657    2.10322906414    0.00000000000    2.00000000000
     -2.10322906414    8.41291625657    0.00000000000    2.00000000000
      2.10322906414    8.41291625657    0.00000000000    2.00000000000
      8.41291625657    2.10322906414    0.00000000000    2.00000000000
      8.41291625657   -2.10322906414    0.00000000000    2.00000000000
      2.10322906414   -8.41291625657    0.00000000000    2.00000000000
     -2.10322906414   -8.41291625657    0.00000000000    2.00000000000
     -8.41291625657   -2.10322906414    0.00000000000    2.00000000000
     -8.41291625657    0.00000000000   -2.10322906414    2.00000000000
      0.00000000000    8.41291625657   -2.10322906414    2.00000000000
      8.41291625657    0.00000000000   -2.10322906414    2.00000000000
      0.00000000000   -8.41291625657   -2.10322906414    2.00000000000
     -6.30968719243    4.20645812828   -4.20645812828    2.00000000000
     -4.20645812828    6.30968719243   -4.20645812828    2.00000000000
      4.20645812828    6.30968719243   -4.20645812828    2.00000000000
      6.30968719243    4.20645812828   -4.20645812828    2.00000000000
      6.30968719243   -4.20645812828   -4.20645812828    2.00000000000
      4.20645812828   -6.30968719243   -4.20645812828    2.00000000000
     -4.20645812828   -6.30968719243   -4.20645812828    2.00000000000
     -6.30968719243   -4.20645812828   -4.20645812828    2.00000000000
     -4.20645812828    4.20645812828   -6.30968719243    2.00000000000
      4.20645812828    4.20645812828   -6.30968719243    2.00000000000
      4.20645812828   -4.20645812828   -6.30968719243    2.00000000000
     -4.20645812828   -4.20645812828   -6.30968719243    2.00000000000
     -2.10322906414    0.00000000000   -8.41291625657    2.00000000000
      0.00000000000    2.10322906414   -8.41291625657    2.00000000000
      2.10322906414    0.00000000000   -8.41291625657    2.00000000000
      0.00000000000   -2.10322906414   -8.41291625657    2.00000000000
     -2.10322906414    2.10322906414    8.41291625657   -2.00000000000
      2.10322906414    2.10322906414    8.41291625657   -2.00000000000
      2.10322906414   -2.10322906414    8.41291625657   -2.00000000000
     -2.10322906414   -2.10322906414    8.41291625657   -2.00000000000
     -6.30968719243    0.00000000000    6.30968719243   -2.00000000000
      0.00000000000    6.30968719243    6.30968719243   -2.00000000000
      6.30968719243    0.00000000000    6.30968719243   -2.00000000000
      0.00000000000   -6.30968719243    6.30968719243   -2.00000000000
     -8.41291625657    2.10322906414    2.10322906414   -2.00000000000
     -2.10322906414    8.41291625657    2.10322906414   -2.00000000000
      2.10322906414    8.41291625657    2.10322906414   -2.00000000000
      8.41291625657    2.10322906414    2.10322906414   -2.00000000000
      8.41291625657   -2.10322906414    2.10322906414   -2.00000000000
      2.10322906414   -8.41291625657    2.10322906414   -2.00000000000
     -2.10322906414   -8.41291625657    2.10322906414   -2.00000000000
     -8.41291625657   -2.10322906414    2.10322906414   -2.00000000000
     -6.30968719243    6.30968719243    0.00000000000   -2.00000000000
      6.30968719243    6.30968719243    0.00000000000   -2.00000000000
      6.30968719243   -6.30968719243    0.00000000000   -2.00000000000
     -6.30968719243   -6.30968719243    0.00000000000   -2.00000000000
     -8.41291625657    2.10322906414   -2.10322906414   -2.00000000000
     -2.10322906414    8.41291625657   -2.10322906414   -2.00000000000
      2.10322906414    8.41291625657   -2.10322906414   -2.00000000000
      8.41291625657    2.10322906414   -2.10322906414   -2.00000000000
      8.41291625657   -2.10322906414   -2.10322906414   -2.00000000000
      2.10322906414   -8.41291625657   -2.10322906414   -2.00000000000
     -2.10322906414   -8.41291625657   -2.10322906414   -2.00000000000
     -8.41291625657   -2.10322906414   -2.10322906414   -2.00000000000
     -6.30968719243    0.00000000000   -6.30968719243   -2.00000000000
      0.00000000000    6.30968719243   -6.30968719243   -2.00000000000
      6.30968719243    0.00000000000   -6.30968719243   -2.00000000000
      0.00000000000   -6.30968719243   -6.30968719243   -2.00000000000
     -2.10322906414    2.10322906414   -8.41291625657   -2.00000000000
      2.10322906414    2.10322906414   -8.41291625657   -2.00000000000
      2.10322906414   -2.10322906414   -8.41291625657   -2.00000000000
     -2.10322906414   -2.10322906414   -8.41291625657   -2.00000000000
     -6.30968719243    2.10322906414    6.30968719243    2.00000000000
     -2.10322906414    6.30968719243    6.30968719243    2.00000000000
      2.10322906414    6.30968719243    6.30968719243    2.00000000000
      6.30968719243    2.10322906414    6.30968719243    2.00000000000
      6.30968719243   -2.10322906414    6.30968719243    2.00000000000
      2.10322906414   -6.30968719243    6.30968719243    2.00000000000
     -2.10322906414   -6.30968719243    6.30968719243    2.00000000000
     -6.30968719243   -2.10322906414    6.30968719243    2.00000000000
     -6.30968719243    6.30968719243    2.10322906414    2.00000000000
      6.30968719243    6.30968719243    2.10322906414    2.00000000000
      6.30968719243   -6.30968719243    2.10322906414    2.00000000000
     -6.30968719243   -6.30968719243    2.10322906414    2.00000000000
     -6.30968719243    6.30968719243   -2.10322906414    2.00000000000
      6.30968719243    6.30968719243   -2.10322906414    2.00000000000
      6.30968719243   -6.30968719243   -2.10322906414    2.00000000000
     -6.30968719243   -6.30968719243   -2.10322906414    2.00000000000
     -6.30968719243    2.10322906414   -6.30968719243    2.00000000000
     -2.10322906414    6.30968719243   -6.30968719243    2.00000000000
      2.10322906414    6.30968719243   -6.30968719243    2.00000000000
      6.30968719243    2.10322906414   -6.30968719243    2.00000000000
      6.30968719243   -2.10322906414   -6.30968719243    2.00000000000
      2.10322906414   -6.30968719243   -6.30968719243    2.00000000000
     -2.10322906414   -6.30968719243   -6.30968719243    2.00000000000
     -6.30968719243   -2.10322906414   -6.30968719243    2.00000000000
     -4.20645812828    0.00000000000    8.41291625657   -2.00000000000
      0.00000000000    4.20645812828    8.41291625657   -2.00000000000
      4.20645812828    0.00000000000    8.41291625657   -2.00000000000
      0.00000000000   -4.20645812828    8.41291625657   -2.00000000000
     -8.41291625657    0.00000000000    4.20645812828   -2.00000000000
      0.00000000000    8.41291625657    4.20645812828   -2.00000000000
      8.41291625657    0.00000000000    4.20645812828   -2.00000000000
      0.00000000000   -8.41291625657    4.20645812828   -2.00000000000
     -8.41291625657    4.20645812828    0.00000000000   -2.00000000000
     -4.20645812828    8.41291625657    0.00000000000   -2.00000000000
      4.20645812828    8.41291625657    0.00000000000   -2.00000000000
      8.41291625657    4.20645812828    0.00000000000   -2.00000000000
      8.41291625657   -4.20645812828    0.00000000000   -2.00000000000
      4.20645812828   -8.41291625657    0.00000000000   -2.00000000000
     -4.20645812828   -8.41291625657    0.00000000000   -2.00000000000
     -8.41291625657   -4.20645812828    0.00000000000   -2.00000000000
     -8.41291625657    0.00000000000   -4.20645812828   -2.00000000000
      0.00000000000    8.41291625657   -4.20645812828   -2.00000000000
      8.41291625657    0.00000000000   -4.20645812828   -2.00000000000
      0.00000000000   -8.41291625657   -4.20645812828   -2.00000000000
     -4.20645812828    0.00000000000   -8.41291625657   -2.00000000000
      0.00000000000    4.20645812828   -8.41291625657   -2.00000000000
      4.20645812828    0.00000000000   -8.41291625657   -2.00000000000
      0.00000000000   -4.20645812828   -8.41291625657   -2.00000000000
     -4.20645812828    2.10322906414    8.41291625657    2.00000000000
     -2.10322906414    4.20645812828    8.41291625657    2.00000000000
      2.10322906414    4.20645812828    8.41291625657    2.00000000000
      4.20645812828    2.10322906414    8.41291625657    2.00000000000
      4.20645812828   -2.10322906414    8.41291625657    2.00000000000
      2.10322906414   -4.20645812828    8.41291625657    2.00000000000
     -2.10322906414   -4.20645812828    8.41291625657    2.00000000000
     -4.20645812828   -2.10322906414    8.41291625657    2.00000000000
     -8.41291625657    2.10322906414    4.20645812828    2.00000000000
     -2.10322906414    8.41291625657    4.20645812828    2.00000000000
      2.10322906414    8.41291625657    4.20645812828    2.00000000000
      8.41291625657    2.10322906414    4.20645812828    2.00000000000
      8.41291625657   -2.10322906414    4.20645812828    2.00000000000
      2.10322906414   -8.41291625657    4.20645812828    2.00000000000
     -2.10322906414   -8.41291625657    4.20645812828    2.00000000000
     -8.41291625657   -2.10322906414    4.20645812828    2.00000000000
     -8.41291625657    4.20645812828    2.10322906414    2.00000000000
     -4.20645812828    8.41291625657    2.10322906414    2.00000000000
      4.20645812828    8.41291625657    2.10322906414    2.00000000000
      8.41291625657    4.20645812828    2.10322906414    2.00000000000
      8.41291625657   -4.20645812828    2.10322906414    2.00000000000
      4.20645812828   -8.41291625657    2.10322906414    2.00000000000
     -4.20645812828   -8.41291625657    2.10322906414    2.00000000000
     -8.41291625657   -4.20645812828    2.10322906414    2.00000000000
     -8.41291625657    4.20645812828   -2.10322906414    2.00000000000
     -4.20645812828    8.41291625657   -2.10322906414    2.00000000000
      4.20645812828    8.41291625657   -2.10322906414    2.00000000000
      8.41291625657    4.20645812828   -2.10322906414    2.00000000000
      8.41291625657   -4.20645812828   -2.10322906414    2.00000000000
      4.20645812828   -8.41291625657   -2.10322906414    2.00000000000
     -4.20645812828   -8.41291625657   -2.10322906414    2.00000000000
     -8.41291625657   -4.20645812828   -2.10322906414    2.00000000000
     -8.41291625657    2.10322906414   -4.20645812828    2.00000000000
     -2.10322906414    8.41291625657   -4.20645812828    2.00000000000
      2.10322906414    8.41291625657   -4.20645812828    2.00000000000
      8.41291625657    2.10322906414   -4.20645812828    2.00000000000
      8.41291625657   -2.10322906414   -4.20645812828    2.00000000000
      2.10322906414   -8.41291625657   -4.20645812828    2.00000000000
     -2.10322906414   -8.41291625657   -4.20645812828    2.00000000000
     -8.41291625657   -2.10322906414   -4.20645812828    2.00000000000
     -4.20645812828    2.10322906414   -8.41291625657    2.00000000000
     -2.10322906414    4.20645812828   -8.41291625657    2.00000000000
      2.10322906414    4.20645812828   -8.41291625657    2.00000000000
      4.20645812828    2.10322906414   -8.41291625657    2.00000000000
      4.20645812828   -2.10322906414   -8.41291625657    2.00000000000
      2.10322906414   -4.20645812828   -8.41291625657    2.00000000000
     -2.10322906414   -4.20645812828   -8.41291625657    2.00000000000
     -4.20645812828   -2.10322906414   -8.41291625657    2.00000000000
     -6.30968719243    4.20645812828    6.30968719243   -2.00000000000
     -4.20645812828    6.30968719243    6.30968719243   -2.00000000000
      4.20645812828    6.30968719243    6.30968719243   -2.00000000000
      6.30968719243    4.20645812828    6.30968719243   -2.00000000000
      6.30968719243   -4.20645812828    6.30968719243   -2.00000000000
      4.20645812828   -6.30968719243    6.30968719243   -2.00000000000
     -4.20645812828   -6.30968719243    6.30968719243   -2.00000000000
     -6.30968719243   -4.20645812828    6.30968719243   -2.00000000000
     -6.30968719243    6.30968719243    4.20645812828   -2.00000000000
      6.30968719243    6.30968719243    4.20645812828   -2.00000000000
      6.30968719243   -6.30968719243    4.20645812828   -2.00000000000
     -6.30968719243   -6.30968719243    4.20645812828   -2.00000000000
     -6.30968719243    6.30968719243   -4.20645812828   -2.00000000000
      6.30968719243    6.30968719243   -4.20645812828   -2.00000000000
      6.30968719243   -6.30968719243   -4.20645812828   -2.00000000000
     -6.30968719243   -6.30968719243   -4.20645812828   -2.00000000000
     -6.30968719243    4.20645812828   -6.30968719243   -2.00000000000
     -4.20645812828    6.30968719243   -6.30968719243   -2.00000000000
      4.20645812828    6.30968719243   -6.30968719243   -2.00000000000
      6.30968719243    4.20645812828   -6.30968719243   -2.00000000000
      6.30968719243   -4.20645812828   -6.30968719243   -2.00000000000
      4.20645812828   -6.30968719243   -6.30968719243   -2.00000000000
     -4.20645812828   -6.30968719243   -6.30968719243   -2.00000000000
     -6.30968719243   -4.20645812828   -6.30968719243   -2.00000000000
     -4.20645812828    4.20645812828    8.41291625657   -2.00000000000
      4.20645812828    4.20645812828    8.41291625657   -2.00000000000
      4.20645812828   -4.20645812828    8.41291625657   -2.00000000000
     -4.20645812828   -4.20645812828    8.41291625657   -2.00000000000
     -8.41291625657    4.20645812828    4.20645812828   -2.00000000000
     -4.20645812828    8.41291625657    4.20645812828   -2.00000000000
      4.20645812828    8.41291625657    4.20645812828   -2.00000000000
      8.41291625657    4.20645812828    4.20645812828   -2.00000000000
      8.41291625657   -4.20645812828    4.20645812828   -2.00000000000
      4.20645812828   -8.41291625657    4.20645812828   -2.00000000000
     -4.20645812828   -8.41291625657    4.20645812828   -2.00000000000
     -8.41291625657   -4.20645812828    4.20645812828   -2.00000000000
[...]
 6410   A         19.035077      19.035077
 6411   A         19.035111      19.035111
 6412   A         19.035894      19.035894
 6413   A         19.035894      19.035894
 6414   A         19.035894      19.035894
 6415   A         19.036797      19.036797
 6416   A         19.036797      19.036797
 6417   A         19.037670      19.037670
 6418   A         19.037670      19.037670
 6419   A         19.037670      19.037670
 6420   A         19.038833      19.038833
 6421   A         19.042209      19.042209
 6422   A         19.042209      19.042209
 6423   A         19.042476      19.042476
 6424   A         19.044636      19.044636
 6425   A         19.044636      19.044636
 6426   A         19.044636      19.044636
 6427   A         19.045915      19.045915
 6428   A         19.045915      19.045915
 6429   A         19.045915      19.045915
 6430   A         19.048338      19.048338
 6431   A         19.048338      19.048338
 6432   A         19.048339      19.048339
 6433   A         19.057059      19.057059
 6434   A         19.057059      19.057059
 6435   A         19.057059      19.057059
 6436   A         19.061146      19.061146
 6437   A         19.061146      19.061146
 6438   A         19.061146      19.061146
 6439   A         19.062708      19.062708
 6440   A         19.062708      19.062708
 6441   A         19.068839      19.068839
 6442   A         19.068840      19.068840
 6443   A         19.068840      19.068840
 6444   A         19.562142      19.562142
 6445   A         19.594992      19.594992
 6446   A         19.596690      19.596690
 6447   A         19.596691      19.596691
 6448   A         19.596691      19.596691
 6449   A         19.601362      19.601362
 6450   A         19.601363      19.601363
 6451   A         19.601363      19.601363
 6452   A         19.604467      19.604467
 6453   A         19.605654      19.605654
 6454   A         19.605654      19.605654
 6455   A         19.620305      19.620305
 6456   A         19.620305      19.620305
 6457   A         19.627535      19.627535
 6458   A         19.627536      19.627536
 6459   A         19.627536      19.627536
 6460   A         19.633166      19.633166
 6461   A         19.633166      19.633166
 6462   A         19.633167      19.633167
 6463   A         19.638339      19.638339
 6464   A         19.638339      19.638339
 6465   A         19.642737      19.642737
 6466   A         19.642738      19.642738
 6467   A         19.642739      19.642739
 6468   A         19.650439      19.650439
 6469   A         19.650439      19.650439
 6470   A         19.650439      19.650439
 6471   A         19.657794      19.657794
 6472   A         19.657795      19.657795
 6473   A         19.657795      19.657795
 6474   A         19.658198      19.658198
 6475   A         19.658198      19.658198
 6476   A         19.658198      19.658198
 6477   A         19.667881      19.667881
 6478   A         19.667882      19.667882
 6479   A         19.667883      19.667883
 6480   A         19.684043      19.684043
 6481   A         19.684043      19.684043
 6482   A         19.686522      19.686522
 6483   A         19.687729      19.687729
 6484   A         19.687729      19.687729
 6485   A         19.687729      19.687729
 6486   A         19.691211      19.691211
 6487   A         19.691211      19.691211
 6488   A         19.691211      19.691211
 6489   A         19.692961      19.692961
 6490   A         19.692962      19.692962
 6491   A         19.692962      19.692962
 6492   A         19.699071      19.699071
 6493   A         19.708104      19.708104
 6494   A         19.708105      19.708105
 6495   A         19.708105      19.708105
 6496   A         19.709740      19.709740
 6497   A         19.709740      19.709740
 6498   A         19.709740      19.709740
 6499   A         19.721111      19.721111
 6500   A         19.728574      19.728574
 6501   A         19.728574      19.728574
 6502   A         19.728575      19.728575
 6503   A         19.729245      19.729245
 6504   A         19.729246      19.729246
 6505   A         19.733179      19.733179
 6506   A         19.733179      19.733179
 6507   A         19.733179      19.733179
 6508   A         19.736370      19.736370
 6509   A         19.736371      19.736371
 6510   A         19.750469      19.750469
 6511   A         19.750469      19.750469
 6512   A         19.751284      19.751284
 6513   A         19.751284      19.751284
 6514   A         19.751284      19.751284
 6515   A         19.751640      19.751640
 6516   A         19.751641      19.751641
 6517   A         19.751641      19.751641
 6518   A         19.758129      19.758129
 6519   A         19.758129      19.758129
 6520   A         19.758129      19.758129
 6521   A         19.761641      19.761641
 6522   A         19.761641      19.761641
 6523   A         19.761641      19.761641
 6524   A         19.763775      19.763775
 6525   A         19.763776      19.763776
 6526   A         19.763776      19.763776
 6527   A         19.770704      19.770704
 6528   A         19.770704      19.770704
 6529   A         19.770704      19.770704
 6530   A         19.779212      19.779212
 6531   A         19.779212      19.779212
 6532   A         19.800831      19.800831
 6533   A         19.800917      19.800917
 6534   A         19.800917      19.800917
 6535   A         19.800917      19.800917
 6536   A         19.801561      19.801561
 6537   A         19.802697      19.802697
 6538   A         19.802697      19.802697
 6539   A         19.808227      19.808227
 6540   A         19.808227      19.808227
 6541   A         19.808227      19.808227
 6542   A         19.812929      19.812929
 6543   A         19.812930      19.812930
 6544   A         19.812930      19.812930
 6545   A         19.823277      19.823277
 6546   A         19.823277      19.823277
 6547   A         19.823277      19.823277
 6548   A         19.825677      19.825677
 6549   A         19.825677      19.825677
 6550   A         19.836467      19.836467
 6551   A         19.836468      19.836468
 6552   A         19.836468      19.836468
 6553   A         19.840146      19.840146
 6554   A         19.840147      19.840147
 6555   A         19.852693      19.852693
 6556   A         19.855715      19.855715
 6557   A         19.855715      19.855715
 6558   A         19.855716      19.855716
 6559   A         19.868152      19.868152
 6560   A         19.868152      19.868152
 6561   A         19.868153      19.868153
 6562   A         19.869684      19.869684
 6563   A         19.869684      19.869684
 6564   A         19.869685      19.869685
 6565   A         19.881084      19.881084
 6566   A         19.881084      19.881084
 6567   A         19.886306      19.886306
 6568   A         19.886308      19.886308
 6569   A         19.886308      19.886308
 6570   A         19.890215      19.890215
 6571   A         19.890215      19.890215
 6572   A         19.890215      19.890215
 6573   A         19.900122      19.900122
 6574   A         19.900122      19.900122
 6575   A         19.900122      19.900122
 6576   A         19.908906      19.908906
 6577   A         19.908906      19.908906
 6578   A         19.908906      19.908906
 6579   A         19.914048      19.914048
 6580   A         19.914048      19.914048
 6581   A         19.914048      19.914048
 6582   A         19.928943      19.928943
 6583   A         19.928943      19.928943
 6584   A         19.928943      19.928943
 6585   A         19.945420      19.945420
 6586   A         19.945420      19.945420
 6587   A         19.945422      19.945422
 6588   A         19.958209      19.958209
 6589   A         19.958210      19.958210
 6590   A         19.961378      19.961378
 6591   A         19.962297      19.962297
 6592   A         19.962297      19.962297
 6593   A         19.962297      19.962297
 6594   A         19.964115      19.964115
 6595   A         19.993876      19.993876
 6596   A         19.993876      19.993876
 6597   A         19.993876      19.993876
 6598   A         19.999604      19.999604
 6599   A         20.012631      20.012631
 6600   A         20.017253      20.017253
 6601   A         20.017255      20.017255
 6602   A         20.017256      20.017256
 6603   A         20.017349      20.017349
 6604   A         20.017350      20.017350
 6605   A         20.017350      20.017350
 6606   A         20.055847      20.055847
 6607   A         20.055848      20.055848
 6608   A         20.075634      20.075634
 6609   A         20.075635      20.075635
 6610   A         20.081887      20.081887
 6611   A         20.081887      20.081887
 6612   A         20.081887      20.081887
 6613   A         20.082197      20.082197
 6614   A         20.082197      20.082197
 6615   A         20.082197      20.082197
 6616   A         20.092950      20.092950
 6617   A         20.092950      20.092950
 6618   A         20.092950      20.092950
 6619   A         20.110763      20.110763
 6620   A         20.110763      20.110763
 6621   A         20.110764      20.110764
 6622   A         20.158778      20.158778
 6623   A         20.171512      20.171512
 6624   A         20.171513      20.171513
 6625   A         20.171513      20.171513
 6626   A         20.172615      20.172615
 6627   A         20.172618      20.172618
 6628   A         20.194983      20.194983
 6629   A         20.194983      20.194983
 6630   A         20.194983      20.194983
 6631   A         20.229317      20.229317
 6632   A         20.240898      20.240898
 6633   A         20.240899      20.240899
 6634   A         36.073812      36.073812
 6635   A         36.073812      36.073812
 6636   A         36.073813      36.073813
 6637   A         36.096965      36.096965
 6638   A         36.096965      36.096965
 6639   A         36.159393      36.159393
 6640   A         36.159393      36.159393
 6641   A         36.159393      36.159393
 6642   A         36.231323      36.231323
 6643   A         36.231324      36.231324
 6644   A         36.231326      36.231326
 6645   A         36.247405      36.247405
 6646   A         36.261591      36.261591
 6647   A         36.261592      36.261592
 6648   A         36.261592      36.261592
 6649   A         36.283371      36.283371
 6650   A         36.285143      36.285143
 6651   A         36.285143      36.285143
 6652   A         36.285144      36.285144
 6653   A         36.349836      36.349836
 6654   A         36.349837      36.349837
 6655   A         36.371811      36.371811
 6656   A         36.371811      36.371811
 6657   A         36.371811      36.371811
 6658   A         36.434530      36.434530
 6659   A         36.530500      36.530500
 6660   A         36.530500      36.530500
 6661   A         36.530501      36.530501
 6662   A         36.532469      36.532469
 6663   A         36.532469      36.532469
 6664   A         36.532470      36.532470
 6665   A         36.542239      36.542239
 6666   A         36.732660      36.732660
 6667   A         36.732661      36.732661
 6668   A         36.799422      36.799422
 6669   A         36.799422      36.799422
 6670   A         36.799422      36.799422
 6671   A         36.875157      36.875157
 6672   A         47.947608      47.947608
 6673   A         47.964790      47.964790
 6674   A         47.964790      47.964790
 6675   A         47.964790      47.964790
 6676   A         47.967478      47.967478
 6677   A         47.967478      47.967478
 6678   A         47.967478      47.967478
 6679   A         47.995948      47.995948
 6680   A         47.995949      47.995949
 6681   A         48.004358      48.004358
 6682   A         48.004358      48.004358
 6683   A         48.004358      48.004358
 6684   A         48.026849      48.026849
 6685   A         48.026849      48.026849
 6686   A         48.029493      48.029493
 6687   A         48.029493      48.029493
 6688   A         48.029493      48.029493
 6689   A         48.030516      48.030516
 6690   A         48.030516      48.030516
 6691   A         48.030516      48.030516
 6692   A         48.035037      48.035037
 6693   A         48.035037      48.035037
 6694   A         48.035037      48.035037
 6695   A         48.044434      48.044434
 6696   A         48.063784      48.063784
 6697   A         48.122772      48.122772
 6698   A         48.122772      48.122772
 6699   A         48.122772      48.122772
 6700   A         48.131486      48.131486
 6701   A         48.131486      48.131486
 6702   A         48.131486      48.131486
 6703   A         48.178362      48.178362
 6704   A         48.178362      48.178362
 6705   A         48.183597      48.183597
 6706   A         48.183597      48.183597
 6707   A         48.183597      48.183597
 6708   A         48.189327      48.189327
 6709   A         48.218659      48.218659
 6710   A         48.218659      48.218659
 6711   A         48.218659      48.218659
 6712   A         48.225026      48.225026
 6713   A         48.225026      48.225026
 6714   A         48.295968      48.295968
 6715   A         48.295968      48.295968
 6716   A         48.295969      48.295969
 6717   A         48.297712      48.297712
 6718   A         48.297713      48.297713
 6719   A         48.297713      48.297713
 6720   A         48.309596      48.309596
 6721   A         48.309596      48.309596
 6722   A         48.309597      48.309597
 6723   A         48.309881      48.309881
 6724   A         48.309881      48.309881
 6725   A         48.309881      48.309881
 6726   A         48.332063      48.332063
 6727   A         48.332063      48.332063
 6728   A         48.332064      48.332064
 6729   A         48.342087      48.342087
 6730   A         48.342087      48.342087
 6731   A         48.343696      48.343696
 6732   A         48.637163      48.637163
 6733   A         48.664570      48.664570
 6734   A         48.664570      48.664570
 6735   A         48.664570      48.664570
 6736   A         48.709323      48.709323
 6737   A         48.709323      48.709323
 6738   A         49.053390      49.053390
 6739   A         49.053390      49.053390
 6740   A         49.063327      49.063327
 6741   A         49.086276      49.086276
 6742   A         49.086276      49.086276
 6743   A         49.086276      49.086276
 6744   A         49.114577      49.114577
 6745   A         49.114577      49.114577
 6746   A         49.114577      49.114577
 6747   A         49.174201      49.174201
 6748   A         49.174201      49.174201
 6749   A         49.174201      49.174201
 6750   A         49.454983      49.454983
 6751   A        198.155089     198.155089
 6752   A        198.155089     198.155089
 6753   A        198.155090     198.155090
 6754   A        198.191225     198.191225
 6755   A        198.191226     198.191226
 6756   A        198.303815     198.303815
 6757   A        198.303815     198.303815
 6758   A        198.303816     198.303816
 6759   A        198.429092     198.429092
 6760   A        198.429092     198.429092
 6761   A        198.429093     198.429093
 6762   A        198.450887     198.450887
 6763   A        198.480032     198.480032
 6764   A        198.480032     198.480032
 6765   A        198.480032     198.480032
 6766   A        198.516478     198.516478
 6767   A        198.516478     198.516478
 6768   A        198.516478     198.516478
 6769   A        198.530733     198.530733
 6770   A        198.619417     198.619417
 6771   A        198.619417     198.619417
 6772   A        198.659198     198.659198
 6773   A        198.659198     198.659198
 6774   A        198.659198     198.659198
 6775   A        198.777963     198.777963
 6776   A        198.935012     198.935012
 6777   A        198.935012     198.935012
 6778   A        198.935012     198.935012
 6779   A        198.942590     198.942590
 6780   A        198.942590     198.942590
 6781   A        198.942590     198.942590
 6782   A        198.954454     198.954454
 6783   A        199.279287     199.279287
 6784   A        199.279288     199.279288
 6785   A        199.393022     199.393022
 6786   A        199.393022     199.393022
 6787   A        199.393022     199.393022
 6788   A        199.525588     199.525588
 6789   A        253.624022     253.624022
 6790   A        253.640347     253.640347
 6791   A        253.640347     253.640347
 6792   A        253.640347     253.640347
 6793   A        253.644311     253.644311
 6794   A        253.644311     253.644311
 6795   A        253.644311     253.644311
 6796   A        253.674050     253.674050
 6797   A        253.674051     253.674051
 6798   A        253.682489     253.682489
 6799   A        253.682489     253.682489
 6800   A        253.682490     253.682490
 6801   A        253.709740     253.709740
 6802   A        253.709740     253.709740
 6803   A        253.711882     253.711882
 6804   A        253.711882     253.711882
 6805   A        253.711882     253.711882
 6806   A        253.715246     253.715246
 6807   A        253.715246     253.715246
 6808   A        253.715246     253.715246
 6809   A        253.718984     253.718984
 6810   A        253.718984     253.718984
 6811   A        253.718984     253.718984
 6812   A        253.726805     253.726805
 6813   A        253.751302     253.751302
 6814   A        253.820026     253.820026
 6815   A        253.820026     253.820026
 6816   A        253.820026     253.820026
 6817   A        253.830471     253.830471
 6818   A        253.830471     253.830471
 6819   A        253.830471     253.830471
 6820   A        253.882845     253.882845
 6821   A        253.882845     253.882845
 6822   A        253.887994     253.887994
 6823   A        253.887995     253.887995
 6824   A        253.887995     253.887995
 6825   A        253.898565     253.898565
 6826   A        253.929823     253.929823
 6827   A        253.929823     253.929823
 6828   A        253.929823     253.929823
 6829   A        253.938543     253.938543
 6830   A        253.938543     253.938543
 6831   A        254.018825     254.018825
 6832   A        254.018825     254.018825
 6833   A        254.018825     254.018825
 6834   A        254.019534     254.019534
 6835   A        254.019534     254.019534
 6836   A        254.019535     254.019535
 6837   A        254.033045     254.033045
 6838   A        254.033045     254.033045
 6839   A        254.033045     254.033045
 6840   A        254.034285     254.034285
 6841   A        254.034285     254.034285
 6842   A        254.034286     254.034286
 6843   A        254.057985     254.057985
 6844   A        254.057985     254.057985
 6845   A        254.057986     254.057986
 6846   A        254.067892     254.067892
 6847   A        254.067892     254.067892
 6848   A        254.075496     254.075496
 6849   A        254.398946     254.398946
 6850   A        254.438853     254.438853
 6851   A        254.438853     254.438853
 6852   A        254.438853     254.438853
 6853   A        254.490515     254.490515
 6854   A        254.490515     254.490515
 6855   A        254.871465     254.871465
 6856   A        254.871465     254.871465
 6857   A        254.895036     254.895036
 6858   A        254.915597     254.915597
 6859   A        254.915597     254.915597
 6860   A        254.915597     254.915597
 6861   A        254.959322     254.959322
 6862   A        254.959322     254.959322
 6863   A        254.959322     254.959322
 6864   A        255.028180     255.028180
 6865   A        255.028180     255.028180
 6866   A        255.028180     255.028180
 6867   A        255.341563     255.341563
 
 RETURNING FROM SCF ALGORITHM
 ======================================================================
 
 ************************ 2021-12-02 14:12:43 *************************
                      Normal termination of mrcc.
 **********************************************************************
