
                                 *****************
                                 * O   R   C   A *
                                 *****************

                                            #,                                       
                                            ###                                      
                                            ####                                     
                                            #####                                    
                                            ######                                   
                                           ########,                                 
                                     ,,################,,,,,                         
                               ,,#################################,,                 
                          ,,##########################################,,             
                       ,#########################################, ''#####,          
                    ,#############################################,,   '####,        
                  ,##################################################,,,,####,       
                ,###########''''           ''''###############################       
              ,#####''   ,,,,##########,,,,          '''####'''          '####       
            ,##' ,,,,###########################,,,                        '##       
           ' ,,###''''                  '''############,,,                           
         ,,##''                                '''############,,,,        ,,,,,,###''
      ,#''                                            '''#######################'''  
     '                                                          ''''####''''         
             ,#######,   #######,   ,#######,      ##                                
            ,#'     '#,  ##    ##  ,#'     '#,    #''#        ######   ,####,        
            ##       ##  ##   ,#'  ##            #'  '#       #        #'  '#        
            ##       ##  #######   ##           ,######,      #####,   #    #        
            '#,     ,#'  ##    ##  '#,     ,#' ,#      #,         ##   #,  ,#        
             '#######'   ##     ##  '#######'  #'      '#     #####' # '####'        



                  #######################################################
                  #                        -***-                        #
                  #          Department of theory and spectroscopy      #
                  #    Directorship and core code : Frank Neese         #
                  #        Max Planck Institute fuer Kohlenforschung    #
                  #                Kaiser Wilhelm Platz 1               #
                  #                 D-45470 Muelheim/Ruhr               #
                  #                      Germany                        #
                  #                                                     #
                  #                  All rights reserved                #
                  #                        -***-                        #
                  #######################################################


                         Program Version 5.0.2 -  RELEASE  -


 With contributions from (in alphabetic order):
   Daniel Aravena         : Magnetic Suceptibility
   Michael Atanasov       : Ab Initio Ligand Field Theory (pilot matlab implementation)
   Alexander A. Auer      : GIAO ZORA, VPT2 properties, NMR spectrum
   Ute Becker             : Parallelization
   Giovanni Bistoni       : ED, misc. LED, open-shell LED, HFLD
   Martin Brehm           : Molecular dynamics
   Dmytro Bykov           : SCF Hessian
   Vijay G. Chilkuri      : MRCI spin determinant printing, contributions to CSF-ICE
   Dipayan Datta          : RHF DLPNO-CCSD density
   Achintya Kumar Dutta   : EOM-CC, STEOM-CC
   Dmitry Ganyushin       : Spin-Orbit,Spin-Spin,Magnetic field MRCI
   Miquel Garcia          : C-PCM and meta-GGA Hessian, CC/C-PCM, Gaussian charge scheme
   Yang Guo               : DLPNO-NEVPT2, F12-NEVPT2, CIM, IAO-localization
   Andreas Hansen         : Spin unrestricted coupled pair/coupled cluster methods
   Benjamin Helmich-Paris : MC-RPA, TRAH-SCF, COSX integrals
   Lee Huntington         : MR-EOM, pCC
   Robert Izsak           : Overlap fitted RIJCOSX, COSX-SCS-MP3, EOM
   Marcus Kettner         : VPT2
   Christian Kollmar      : KDIIS, OOCD, Brueckner-CCSD(T), CCSD density, CASPT2, CASPT2-K
   Simone Kossmann        : Meta GGA functionals, TD-DFT gradient, OOMP2, MP2 Hessian
   Martin Krupicka        : Initial AUTO-CI
   Lucas Lang             : DCDCAS
   Marvin Lechner         : AUTO-CI (C++ implementation), FIC-MRCC
   Dagmar Lenk            : GEPOL surface, SMD
   Dimitrios Liakos       : Extrapolation schemes; Compound Job, initial MDCI parallelization
   Dimitrios Manganas     : Further ROCIS development; embedding schemes
   Dimitrios Pantazis     : SARC Basis sets
   Anastasios Papadopoulos: AUTO-CI, single reference methods and gradients
   Taras Petrenko         : DFT Hessian,TD-DFT gradient, ASA, ECA, R-Raman, ABS, FL, XAS/XES, NRVS
   Peter Pinski           : DLPNO-MP2, DLPNO-MP2 Gradient
   Christoph Reimann      : Effective Core Potentials
   Marius Retegan         : Local ZFS, SOC
   Christoph Riplinger    : Optimizer, TS searches, QM/MM, DLPNO-CCSD(T), (RO)-DLPNO pert. Triples
   Tobias Risthaus        : Range-separated hybrids, TD-DFT gradient, RPA, STAB
   Michael Roemelt        : Original ROCIS implementation
   Masaaki Saitow         : Open-shell DLPNO-CCSD energy and density
   Barbara Sandhoefer     : DKH picture change effects
   Avijit Sen             : IP-ROCIS
   Kantharuban Sivalingam : CASSCF convergence, NEVPT2, FIC-MRCI
   Bernardo de Souza      : ESD, SOC TD-DFT
   Georgi Stoychev        : AutoAux, RI-MP2 NMR, DLPNO-MP2 response
   Willem Van den Heuvel  : Paramagnetic NMR
   Boris Wezisla          : Elementary symmetry handling
   Frank Wennmohs         : Technical directorship


 We gratefully acknowledge several colleagues who have allowed us to
 interface, adapt or use parts of their codes:
   Stefan Grimme, W. Hujo, H. Kruse, P. Pracht,  : VdW corrections, initial TS optimization,
                  C. Bannwarth, S. Ehlert          DFT functionals, gCP, sTDA/sTD-DF
   Ed Valeev, F. Pavosevic, A. Kumar             : LibInt (2-el integral package), F12 methods
   Garnet Chan, S. Sharma, J. Yang, R. Olivares  : DMRG
   Ulf Ekstrom                                   : XCFun DFT Library
   Mihaly Kallay                                 : mrcc  (arbitrary order and MRCC methods)
   Jiri Pittner, Ondrej Demel                    : Mk-CCSD
   Frank Weinhold                                : gennbo (NPA and NBO analysis)
   Christopher J. Cramer and Donald G. Truhlar   : smd solvation model
   Lars Goerigk                                  : TD-DFT with DH, B97 family of functionals
   V. Asgeirsson, H. Jonsson                     : NEB implementation
   FAccTs GmbH                                   : IRC, NEB, NEB-TS, DLPNO-Multilevel, CI-OPT
                                                   MM, QMMM, 2- and 3-layer-ONIOM, Crystal-QMMM,
                                                   LR-CPCM, SF, NACMEs, symmetry and pop. for TD-DFT,
                                                   nearIR, NL-DFT gradient (VV10), updates on ESD,
                                                   ML-optimized integration grids
   S Lehtola, MJT Oliveira, MAL Marques          : LibXC Library
   Liviu Ungur et al                             : ANISO software


 Your calculation uses the libint2 library for the computation of 2-el integrals
 For citations please refer to: http://libint.valeyev.net

 Your ORCA version has been built with support for libXC version: 5.1.0
 For citations please refer to: https://tddft.org/programs/libxc/

 This ORCA versions uses:
   CBLAS   interface :  Fast vector & matrix operations
   LAPACKE interface :  Fast linear algebra routines
   SCALAPACK package :  Parallel linear algebra routines
   Shared memory     :  Shared parallel matrices
   BLAS/LAPACK       :  OpenBLAS 0.3.15  USE64BITINT DYNAMIC_ARCH NO_AFFINITY Zen SINGLE_THREADED
        Core in use  :  Zen
   Copyright (c) 2011-2014, The OpenBLAS Project


SCAN-COORDS
================================================================================

----- Orbital basis set information -----
Your calculation utilizes the basis: def2-QZVPP
   F. Weigend and R. Ahlrichs, Phys. Chem. Chem. Phys. 7, 3297 (2005).

----- AuxJ basis set information -----
Your calculation utilizes the auxiliary basis: def2/J
   F. Weigend, Phys. Chem. Chem. Phys. 8, 1057 (2006).

----- AuxC basis set information -----
Your calculation utilizes the auxiliary basis: def2-QZVPP/C
  H-La, Hf-Rn : A. Hellweg, C. Hattig, S. Hofener and W. Klopper, Theor. Chem. Acc. 117, 587 (2007).
        Ce-Lu : J. Chmela and M. E. Harding, Mol. Phys. (2018).

================================================================================
                                        WARNINGS
                       Please study these warnings very carefully!
================================================================================

WARNING: Old DensityContainer found on disk!
         Will remove this file - 
         If you want to keep old densities, please start your calculation with a different basename. 


WARNING: No MP2 level density has been requested!
         To caclulate MP2 level properties use
         %mp2 Density relaxed end
         or
         %mp2 Density unrelaxed end
         Otherwise for double-hybrid DFT only the energy is correct!

WARNING: The frozen-core approximation is turned on by default for 
         the MP2 part of double-hybrid DFT.

INFO   : the flag for use of the SHARK integral package has been found!

================================================================================
                                       INPUT FILE
================================================================================
NAME = orca.inp
|  1> ! VeryTightSCF DLPNO-B2PLYP NormalPNO RIJCOSX SlowConv DIIS NOTRAH
|  2> %maxcore 4000
|  3> %pal
|  4>   nprocs 4
|  5> end
|  6> %method
|  7>    Method DFT
|  8>   RI on
|  9>   RunTyp Energy
| 10> end
| 11> %basis
| 12>   Basis "def2-QZVPP"
| 13>   Aux "def2/J"
| 14>   AuxC "def2-QZVPP/C"
| 15> end
| 16> %scf
| 17>   HFTyp uks
| 18>   Guess Hueckel
| 19>   AutoStart True
| 20>   SCFMode Direct
| 21>   MaxIter 1000
| 22>   sthresh 1e-6
| 23> end
| 24> %coords
| 25>   CTyp xyz
| 26>   Mult 3
| 27>   Units angs
| 28>   coords
| 29> O                      0.00000000000    0.00000000000    0.00000000000
| 30>   end
| 31> end
| 32> 
| 33>                          ****END OF INPUT****
================================================================================

                       ****************************
                       * Single Point Calculation *
                       ****************************

---------------------------------
CARTESIAN COORDINATES (ANGSTROEM)
---------------------------------
  O      0.000000    0.000000    0.000000

----------------------------
CARTESIAN COORDINATES (A.U.)
----------------------------
  NO LB      ZA    FRAG     MASS         X           Y           Z
   0 O     8.0000    0    15.999    0.000000    0.000000    0.000000

--------------------------------
INTERNAL COORDINATES (ANGSTROEM)
--------------------------------
 O      0   0   0     0.000000000000     0.00000000     0.00000000

---------------------------
INTERNAL COORDINATES (A.U.)
---------------------------
 O      0   0   0     0.000000000000     0.00000000     0.00000000

---------------------
BASIS SET INFORMATION
---------------------
There are 1 groups of distinct atoms

 Group   1 Type O   : 15s8p3d2f1g contracted to 7s4p3d2f1g pattern {8211111/5111/111/11/1}

Atom   0O    basis set group =>   1
---------------------------------
AUXILIARY/J BASIS SET INFORMATION
---------------------------------
There are 1 groups of distinct atoms

 Group   1 Type O   : 12s5p4d2f1g contracted to 6s4p3d1f1g pattern {711111/2111/211/2/1}

Atom   0O    basis set group =>   1
---------------------------------
AUXILIARY/C BASIS SET INFORMATION
---------------------------------
There are 1 groups of distinct atoms

 Group   1 Type O   : 9s8p7d5f3g1h contracted to 9s8p7d5f3g1h pattern {111111111/11111111/1111111/11111/111/1}

Atom   0O    basis set group =>   1

Checking for AutoStart:
The File: orca.gbw exists
Trying to determine its content:
     ... Fine, the file contains calculation information


WARNING!!!!!!!
Your GBWFile is either corrupt or from a different ORCA version!
Please be VERY careful with your calculation results!!!

Data_size, sizeof( TOrcaInfo ): 651704, 651728
     ... Fine, the calculation information was read
     ... Fine, the file contains a basis set
     ... Fine, the basis set was read
     ... Fine, the file contains a geometry
     ... Fine, the geometry was read
     ... Fine, the file contains a set of orbitals
     ... Fine, the orbitals can be read
     => possible old guess file was deleted
     => GBW file was renamed to GES file
     => GES file is set as startup file
     => Guess is set to MORead
     ... now leaving AutoStart



           ************************************************************
           *        Program running with 4 parallel MPI-processes     *
           *              working on a common directory               *
           ************************************************************
------------------------------------------------------------------------------
                           ORCA GTO INTEGRAL CALCULATION
                           -- RI-GTO INTEGRALS CHOSEN --
------------------------------------------------------------------------------
------------------------------------------------------------------------------
                   ___                                                        
                  /   \      - P O W E R E D   B Y -                         
                 /     \                                                     
                 |  |  |   _    _      __       _____    __    __             
                 |  |  |  | |  | |    /  \     |  _  \  |  |  /  |          
                  \  \/   | |  | |   /    \    | | | |  |  | /  /          
                 / \  \   | |__| |  /  /\  \   | |_| |  |  |/  /          
                |  |  |   |  __  | /  /__\  \  |    /   |      \           
                |  |  |   | |  | | |   __   |  |    \   |  |\   \          
                \     /   | |  | | |  |  |  |  | |\  \  |  | \   \       
                 \___/    |_|  |_| |__|  |__|  |_| \__\ |__|  \__/        
                                                                              
                      - O R C A' S   B I G   F R I E N D -                    
                                      &                                       
                       - I N T E G R A L  F E E D E R -                       
                                                                              
 v1 FN, 2020, v2 2021                                                         
------------------------------------------------------------------------------


Reading SHARK input file orca.SHARKINP.tmp ... ok
----------------------
SHARK INTEGRAL PACKAGE
----------------------

Number of atoms                             ...      1
Number of basis functions                   ...     57
Number of shells                            ...     17
Maximum angular momentum                    ...      4
Integral batch strategy                     ... SHARK/LIBINT Hybrid
RI-J (if used) integral strategy            ... SPLIT-RIJ (Revised 2003 algorithm where possible)
Printlevel                                  ...      1
Contraction scheme used                     ... SEGMENTED contraction
Coulomb Range Separation                    ... NOT USED
Exchange Range Separation                   ... NOT USED
Finite Nucleus Model                        ... NOT USED
Auxiliary Coulomb fitting basis             ... AVAILABLE
   # of basis functions in Aux-J            ...     49
   # of shells in Aux-J                     ...     15
   Maximum angular momentum in Aux-J        ...      4
Auxiliary J/K fitting basis                 ... NOT available
Auxiliary Correlation fitting basis         ... AVAILABLE
   # of basis functions in Aux-C            ...    141
   # of shells in Aux-C                     ...     33
   Maximum angular momentum in Aux-C        ...      5
Auxiliary 'external' fitting basis          ... NOT available
Integral threshold                          ...     1.000000e-12
Primitive cut-off                           ...     1.000000e-14
Primitive pair pre-selection threshold      ...     1.000000e-14

Calculating pre-screening integrals         ... done (  0.0 sec) Dimension = 17
Organizing shell pair data                  ... done (  0.0 sec)
Shell pair information
Total number of shell pairs                 ...       153
Shell pairs after pre-screening             ...       153
Total number of primitive shell pairs       ...       474
Primitive shell pairs kept                  ...       474
          la=0 lb=0:     28 shell pairs
          la=1 lb=0:     28 shell pairs
          la=1 lb=1:     10 shell pairs
          la=2 lb=0:     21 shell pairs
          la=2 lb=1:     12 shell pairs
          la=2 lb=2:      6 shell pairs
          la=3 lb=0:     14 shell pairs
          la=3 lb=1:      8 shell pairs
          la=3 lb=2:      6 shell pairs
          la=3 lb=3:      3 shell pairs
          la=4 lb=0:      7 shell pairs
          la=4 lb=1:      4 shell pairs
          la=4 lb=2:      3 shell pairs
          la=4 lb=3:      2 shell pairs
          la=4 lb=4:      1 shell pairs

Calculating one electron integrals          ... done (  0.0 sec)
Calculating RI/J V-Matrix + Cholesky decomp.... done (  0.0 sec)
Calculating RI/C V-Matrix + Cholesky decomp.... done (  0.0 sec)
Calculating Nuclear repulsion               ... done (  0.0 sec) ENN=      0.000000000000 Eh

SHARK setup successfully completed in   0.1 seconds

Maximum memory used throughout the entire GTOINT-calculation: 28.5 MB


           ************************************************************
           *        Program running with 4 parallel MPI-processes     *
           *              working on a common directory               *
           ************************************************************
-------------------------------------------------------------------------------
                                 ORCA SCF
-------------------------------------------------------------------------------

------------
SCF SETTINGS
------------
Hamiltonian:
 Density Functional     Method          .... DFT(GTOs)
 Exchange Functional    Exchange        .... B88
   X-Alpha parameter    XAlpha          ....  0.666667
   Becke's b parameter  XBeta           ....  0.004200
 Correlation Functional Correlation     .... LYP
 LDA part of GGA corr.  LDAOpt          .... VWN-3
 Gradients option       PostSCFGGA      .... off
 Hybrid DFT is turned on
   Fraction HF Exchange ScalHFX         ....  0.530000
   Scaling of DF-GGA-X  ScalDFX         ....  0.470000
   Scaling of DF-GGA-C  ScalDFC         ....  0.730000
   Scaling of DF-LDA-C  ScalLDAC        ....  0.730000
   Perturbative correction              ....  0.270000
   Density functional embedding theory  .... OFF
   NL short-range parameter             ....  7.800000
 RI-approximation to the Coulomb term is turned on
   Number of AuxJ basis functions       .... 49
   RIJ-COSX (HFX calculated with COS-X)).... on


General Settings:
 Integral files         IntName         .... orca
 Hartree-Fock type      HFTyp           .... UHF
 Total Charge           Charge          ....    0
 Multiplicity           Mult            ....    3
 Number of Electrons    NEL             ....    8
 Basis Dimension        Dim             ....   57
 Nuclear Repulsion      ENuc            ....      0.0000000000 Eh

Convergence Acceleration:
 DIIS                   CNVDIIS         .... on
   Start iteration      DIISMaxIt       ....     0
   Startup error        DIISStart       ....  0.200000
   # of expansion vecs  DIISMaxEq       ....     5
   Bias factor          DIISBfac        ....   1.050
   Max. coefficient     DIISMaxC        ....  10.000
 Trust-Rad. Augm. Hess. CNVTRAH         .... off
 SOSCF                  CNVSOSCF        .... off
 Level Shifting         CNVShift        .... on
   Level shift para.    LevelShift      ....    0.2500
   Turn off err/grad.   ShiftErr        ....    0.0000
 Zerner damping         CNVZerner       .... off
 Static damping         CNVDamp         .... on
   Fraction old density DampFac         ....    0.8500
   Max. Damping (<1)    DampMax         ....    0.9800
   Min. Damping (>=0)   DampMin         ....    0.0000
   Turn off err/grad.   DampErr         ....    0.0300
 Fernandez-Rico         CNVRico         .... off

SCF Procedure:
 Maximum # iterations   MaxIter         ....  1000
 SCF integral mode      SCFMode         .... Direct
   Integral package                     .... SHARK and LIBINT hybrid scheme
 Reset frequency        DirectResetFreq ....    20
 Integral Threshold     Thresh          ....  1.000e-12 Eh
 Primitive CutOff       TCut            ....  1.000e-14 Eh

Convergence Tolerance:
 Convergence Check Mode ConvCheckMode   .... Total+1el-Energy
 Convergence forced     ConvForced      .... 0
 Energy Change          TolE            ....  1.000e-09 Eh
 1-El. energy change                    ....  1.000e-06 Eh
 DIIS Error             TolErr          ....  1.000e-08


Diagonalization of the overlap matrix:
Smallest eigenvalue                        ... 5.807e-03
Time for diagonalization                   ...    0.000 sec
Threshold for overlap eigenvalues          ... 1.000e-06
Number of eigenvalues below threshold      ... 0
Time for construction of square roots      ...    0.000 sec
Total time needed                          ...    0.001 sec

---------------------
INITIAL GUESS: MOREAD
---------------------


WARNING!!!!!!!
Your GBWFile is either corrupt or from a different ORCA version!
Please be VERY careful with your calculation results!!!

Data_size, sizeof( TOrcaInfo ): 651704, 651728
Guess MOs are being read from file: orca.ges
Input Geometry matches current geometry (good)
Input basis set matches current basis set (good)
MOs were renormalized
MOs were reorthogonalized (Cholesky)
                      ------------------
                      INITIAL GUESS DONE (   0.0 sec)
                      ------------------
-------------------
DFT GRID GENERATION
-------------------

General Integration Accuracy     IntAcc      ... 4.388
Radial Grid Type                 RadialGrid  ... OptM3 with GC (2021)
Angular Grid (max. ang.)         AngularGrid ... 4 (Lebedev-302)
Angular grid pruning method      GridPruning ... 4 (adaptive)
Weight generation scheme         WeightScheme... Becke
Basis function cutoff            BFCut       ... 1.0000e-12
Integration weight cutoff        WCut        ... 1.0000e-14
Angular grids for H and He will be reduced by one unit
Partially contracted basis set               ... off
Rotationally invariant grid construction     ... off

Total number of grid points                  ...     6460
Total number of batches                      ...      101
Average number of points per batch           ...       63
Average number of grid points per atom       ...     6460
Time for grid setup =    0.030 sec

--------------------
COSX GRID GENERATION
--------------------

GRIDX 1
-------
General Integration Accuracy     IntAcc      ... 3.816
Radial Grid Type                 RadialGrid  ... OptM3 with GC (2021)
Angular Grid (max. ang.)         AngularGrid ... 1 (Lebedev-50)
Angular grid pruning method      GridPruning ... 4 (adaptive)
Weight generation scheme         WeightScheme... Becke
Basis function cutoff            BFCut       ... 1.0000e-12
Integration weight cutoff        WCut        ... 1.0000e-14
Angular grids for H and He will be reduced by one unit
Partially contracted basis set               ... on
Rotationally invariant grid construction     ... off

Total number of grid points                  ...      820
Total number of batches                      ...       13
Average number of points per batch           ...       63
Average number of grid points per atom       ...      820
UseSFitting                                  ... on

GRIDX 2
-------
General Integration Accuracy     IntAcc      ... 4.020
Radial Grid Type                 RadialGrid  ... OptM3 with GC (2021)
Angular Grid (max. ang.)         AngularGrid ... 2 (Lebedev-110)
Angular grid pruning method      GridPruning ... 4 (adaptive)
Weight generation scheme         WeightScheme... Becke
Basis function cutoff            BFCut       ... 1.0000e-12
Integration weight cutoff        WCut        ... 1.0000e-14
Angular grids for H and He will be reduced by one unit
Partially contracted basis set               ... on
Rotationally invariant grid construction     ... off

Total number of grid points                  ...     2312
Total number of batches                      ...       37
Average number of points per batch           ...       62
Average number of grid points per atom       ...     2312
UseSFitting                                  ... on

GRIDX 3
-------
General Integration Accuracy     IntAcc      ... 4.338
Radial Grid Type                 RadialGrid  ... OptM3 with GC (2021)
Angular Grid (max. ang.)         AngularGrid ... 3 (Lebedev-194)
Angular grid pruning method      GridPruning ... 4 (adaptive)
Weight generation scheme         WeightScheme... Becke
Basis function cutoff            BFCut       ... 1.0000e-12
Integration weight cutoff        WCut        ... 1.0000e-14
Angular grids for H and He will be reduced by one unit
Partially contracted basis set               ... on
Rotationally invariant grid construction     ... off

Total number of grid points                  ...     4980
Total number of batches                      ...       78
Average number of points per batch           ...       63
Average number of grid points per atom       ...     4980
UseSFitting                                  ... on

Time for X-Grid setup             =    0.027 sec

--------------
SCF ITERATIONS
--------------
ITER       Energy         Delta-E        Max-DP      RMS-DP      [F,P]     Damp
               ***  Starting incremental Fock matrix formation  ***
  0    -75.0083941896   0.000000000000 0.00225922  0.00006228  0.0868672 0.8500
  1    -75.0086937166  -0.000299527035 0.00222288  0.00006058  0.0747354 0.8500
                               ***Turning on DIIS***
  2    -75.0089575589  -0.000263842302 0.00196807  0.00005369  0.0641902 0.8500
  3    -75.0091868979  -0.000229339004 0.00178029  0.00004812  0.0551125 0.8500
  4    -75.0093857644  -0.000198866515 0.00162178  0.00004335  0.0471584 0.8500
  5    -75.0095575953  -0.000171830831 0.00144004  0.00003825  0.0401996 0.8500
  6    -75.0097059154  -0.000148320165 0.00125432  0.00003322  0.0342110 0.8500
  7    -75.0098339055  -0.000127990027 0.00719788  0.00019033  0.0290967 0.0000
  8    -75.0106008892  -0.000766983736 0.00016226  0.00000614  0.0001534 0.0000
               *** Restarting incremental Fock matrix formation ***
                                   *** Resetting DIIS ***
  9    -75.0106013437  -0.000000454517 0.00007938  0.00000286  0.0000648 0.0000
 10    -75.0106014719  -0.000000128223 0.00005184  0.00000214  0.0000341 0.0000
 11    -75.0106015179  -0.000000045926 0.00001735  0.00000078  0.0000103 0.0000
 12    -75.0106015232  -0.000000005288 0.00000655  0.00000027  0.0000032 0.0000
 13    -75.0106015237  -0.000000000589 0.00000291  0.00000012  0.0000014 0.0000
                 **** Energy Check signals convergence ****

               *****************************************************
               *                     SUCCESS                       *
               *           SCF CONVERGED AFTER  14 CYCLES          *
               *****************************************************

Old exchange energy                            =     -4.346433025 Eh
New exchange energy                            =     -4.346433320 Eh
Exchange energy change after final integration =     -0.000000295 Eh
Total energy after final integration           =    -75.010601819 Eh
Final COS-X integration done in                =     0.058 sec

----------------
TOTAL SCF ENERGY
----------------

Total Energy       :          -75.01060182 Eh           -2041.14225 eV

Components:
Nuclear Repulsion  :            0.00000000 Eh               0.00000 eV
Electronic Energy  :          -75.01060182 Eh           -2041.14225 eV
One Electron Energy:         -103.25307257 Eh           -2809.65895 eV
Two Electron Energy:           28.24247076 Eh             768.51670 eV
Max COSX asymmetry :            0.00000004 Eh               0.00000 eV

Virial components:
Potential Energy   :         -149.88891787 Eh           -4078.68481 eV
Kinetic Energy     :           74.87831606 Eh            2037.54257 eV
Virial Ratio       :            2.00176668


DFT components:
N(Alpha)           :        4.999989844141 electrons
N(Beta)            :        2.999992855572 electrons
N(Total)           :        7.999982699713 electrons
E(X)               :       -3.860793061719 Eh       
E(C)               :       -0.187800936680 Eh       
E(XC)              :       -4.048593998399 Eh       
DFET-embed. en.    :        0.000000000000 Eh       

---------------
SCF CONVERGENCE
---------------

  Last Energy change         ...   -9.8595e-11  Tolerance :   1.0000e-09
  Last MAX-Density change    ...    0.0000e+00  Tolerance :   1.0000e-08
  Last RMS-Density change    ...    0.0000e+00  Tolerance :   1.0000e-09
  Last DIIS Error            ...    6.2221e-07  Tolerance :   1.0000e-08

             **** THE GBW FILE WAS UPDATED (orca.gbw) ****
             **** DENSITY orca.scfp WAS UPDATED ****
             **** ENERGY FILE WAS UPDATED (orca.en.tmp) ****
----------------------
UHF SPIN CONTAMINATION
----------------------

Warning: in a DFT calculation there is little theoretical justification to 
         calculate <S**2> as in Hartree-Fock theory. We will do it anyways
         but you should keep in mind that the values have only limited relevance

Expectation value of <S**2>     :     2.005283
Ideal value S*(S+1) for S=1.0   :     2.000000
Deviation                       :     0.005283

             **** THE GBW FILE WAS UPDATED (orca.gbw) ****
             **** DENSITY orca.scfp WAS UPDATED ****
----------------
ORBITAL ENERGIES
----------------
                 SPIN UP ORBITALS
  NO   OCC          E(Eh)            E(eV) 
   0   1.0000     -19.875270      -540.8336 
   1   1.0000      -1.183926       -32.2163 
   2   1.0000      -0.564051       -15.3486 
   3   1.0000      -0.564051       -15.3486 
   4   1.0000      -0.479795       -13.0559 
   5   0.0000       0.276346         7.5198 
   6   0.0000       0.276346         7.5198 
   7   0.0000       0.292157         7.9500 
   8   0.0000       0.422712        11.5026 
   9   0.0000       1.033554        28.1244 
  10   0.0000       1.033554        28.1244 
  11   0.0000       1.064892        28.9772 
  12   0.0000       1.064892        28.9772 
  13   0.0000       1.075882        29.2762 
  14   0.0000       1.359865        37.0038 
  15   0.0000       1.359865        37.0038 
  16   0.0000       1.405787        38.2534 
  17   0.0000       2.850780        77.5737 
  18   0.0000       3.126411        85.0740 
  19   0.0000       3.126411        85.0740 
  20   0.0000       3.158823        85.9560 
  21   0.0000       3.158823        85.9560 
  22   0.0000       3.178173        86.4825 
  23   0.0000       3.178173        86.4825 
  24   0.0000       3.185047        86.6695 
  25   0.0000       3.730064       101.5002 
  26   0.0000       3.730064       101.5002 
  27   0.0000       3.786560       103.0375 
  28   0.0000       3.786560       103.0375 
  29   0.0000       3.806205       103.5721 
  30   0.0000       4.993329       135.8754 
  31   0.0000       4.993329       135.8754 
  32   0.0000       5.059134       137.6660 
  33   0.0000       8.895495       242.0587 
  34   0.0000       8.895496       242.0588 
  35   0.0000       8.932015       243.0525 
  36   0.0000       8.932016       243.0525 
  37   0.0000       8.958027       243.7603 
  38   0.0000       8.958028       243.7603 
  39   0.0000       8.974068       244.1968 
  40   0.0000       8.974068       244.1968 
  41   0.0000       8.979328       244.3399 
  42   0.0000      10.951224       297.9979 
  43   0.0000      10.951224       297.9980 
  44   0.0000      11.001881       299.3764 
  45   0.0000      11.001881       299.3764 
  46   0.0000      11.031820       300.1911 
  47   0.0000      11.031820       300.1911 
  48   0.0000      11.042344       300.4775 
  49   0.0000      11.943849       325.0086 
  50   0.0000      11.943849       325.0086 
  51   0.0000      12.005503       326.6863 
  52   0.0000      12.005503       326.6863 
  53   0.0000      12.022565       327.1506 
  54   0.0000      12.385739       337.0331 
  55   0.0000      47.076850      1281.0262 
  56   0.0000     252.645980      6874.8466 

                 SPIN DOWN ORBITALS
  NO   OCC          E(Eh)            E(eV) 
   0   1.0000     -19.813830      -539.1617 
   1   1.0000      -0.955038       -25.9879 
   2   1.0000      -0.416433       -11.3317 
   3   0.0000      -0.069097        -1.8802 
   4   0.0000      -0.069096        -1.8802 
   5   0.0000       0.300312         8.1719 
   6   0.0000       0.334479         9.1016 
   7   0.0000       0.334492         9.1020 
   8   0.0000       0.460744        12.5375 
   9   0.0000       1.105653        30.0864 
  10   0.0000       1.106401        30.1067 
  11   0.0000       1.106401        30.1067 
  12   0.0000       1.116111        30.3709 
  13   0.0000       1.116111        30.3709 
  14   0.0000       1.430510        38.9262 
  15   0.0000       1.466676        39.9103 
  16   0.0000       1.466680        39.9104 
  17   0.0000       2.936334        79.9017 
  18   0.0000       3.209910        87.3461 
  19   0.0000       3.209910        87.3461 
  20   0.0000       3.212306        87.4113 
  21   0.0000       3.212306        87.4113 
  22   0.0000       3.216972        87.5382 
  23   0.0000       3.216972        87.5383 
  24   0.0000       3.217767        87.5599 
  25   0.0000       3.877500       105.5121 
  26   0.0000       3.877502       105.5122 
  27   0.0000       3.879231       105.5592 
  28   0.0000       3.896633       106.0328 
  29   0.0000       3.896633       106.0328 
  30   0.0000       5.095885       138.6661 
  31   0.0000       5.123708       139.4232 
  32   0.0000       5.123711       139.4233 
  33   0.0000       9.009835       245.1701 
  34   0.0000       9.009836       245.1701 
  35   0.0000       9.012660       245.2469 
  36   0.0000       9.012661       245.2470 
  37   0.0000       9.021238       245.4804 
  38   0.0000       9.021238       245.4804 
  39   0.0000       9.024857       245.5788 
  40   0.0000       9.024860       245.5789 
  41   0.0000       9.027592       245.6533 
  42   0.0000      11.105875       302.2062 
  43   0.0000      11.105884       302.2065 
  44   0.0000      11.111443       302.3577 
  45   0.0000      11.113350       302.4096 
  46   0.0000      11.113368       302.4101 
  47   0.0000      11.114009       302.4276 
  48   0.0000      11.114012       302.4276 
  49   0.0000      12.101207       329.2906 
  50   0.0000      12.101221       329.2910 
  51   0.0000      12.104546       329.3814 
  52   0.0000      12.121496       329.8427 
  53   0.0000      12.121504       329.8429 
  54   0.0000      12.476374       339.4994 
  55   0.0000      47.135677      1282.6270 
  56   0.0000     252.662140      6875.2864 

                    ********************************
                    * MULLIKEN POPULATION ANALYSIS *
                    ********************************

--------------------------------------------
MULLIKEN ATOMIC CHARGES AND SPIN POPULATIONS
--------------------------------------------
   0 O :    0.000000    2.000000
Sum of atomic charges         :    0.0000000
Sum of atomic spin populations:    2.0000000

-----------------------------------------------------
MULLIKEN REDUCED ORBITAL CHARGES AND SPIN POPULATIONS
-----------------------------------------------------
CHARGE
  0 O s       :     3.999219  s :     3.999219
      pz      :     1.198677  p :     3.999744
      px      :     1.723336
      py      :     1.077732
      dz2     :     0.000032  d :     0.000781
      dxz     :     0.000337
      dyz     :     0.000036
      dx2y2   :     0.000244
      dxy     :     0.000132
      f0      :     0.000022  f :     0.000256
      f+1     :     0.000052
      f-1     :     0.000006
      f+2     :     0.000049
      f-2     :     0.000039
      f+3     :     0.000044
      f-3     :     0.000044
      g0      :     0.000000  g :     0.000000
      g+1     :     0.000000
      g-1     :     0.000000
      g+2     :     0.000000
      g-2     :     0.000000
      g+3     :     0.000000
      g-3     :     0.000000
      g+4     :     0.000000
      g-4     :     0.000000

SPIN
  0 O s       :    -0.000055  s :    -0.000055
      pz      :     0.801164  p :     1.999746
      px      :     0.276464
      py      :     0.922118
      dz2     :     0.000002  d :     0.000055
      dxz     :     0.000024
      dyz     :     0.000003
      dx2y2   :     0.000017
      dxy     :     0.000009
      f0      :     0.000022  f :     0.000254
      f+1     :     0.000052
      f-1     :     0.000006
      f+2     :     0.000048
      f-2     :     0.000039
      f+3     :     0.000043
      f-3     :     0.000044
      g0      :    -0.000000  g :    -0.000000
      g+1     :    -0.000000
      g-1     :    -0.000000
      g+2     :    -0.000000
      g-2     :    -0.000000
      g+3     :    -0.000000
      g-3     :    -0.000000
      g+4     :    -0.000000
      g-4     :    -0.000000


                     *******************************
                     * LOEWDIN POPULATION ANALYSIS *
                     *******************************

-------------------------------------------
LOEWDIN ATOMIC CHARGES AND SPIN POPULATIONS
-------------------------------------------
   0 O :    0.000000    2.000000

----------------------------------------------------
LOEWDIN REDUCED ORBITAL CHARGES AND SPIN POPULATIONS
----------------------------------------------------
CHARGE
  0 O s       :     3.999219  s :     3.999219
      pz      :     1.198677  p :     3.999744
      px      :     1.723336
      py      :     1.077732
      dz2     :     0.000032  d :     0.000781
      dxz     :     0.000337
      dyz     :     0.000036
      dx2y2   :     0.000244
      dxy     :     0.000132
      f0      :     0.000022  f :     0.000256
      f+1     :     0.000052
      f-1     :     0.000006
      f+2     :     0.000049
      f-2     :     0.000039
      f+3     :     0.000044
      f-3     :     0.000044
      g0      :     0.000000  g :     0.000000
      g+1     :     0.000000
      g-1     :     0.000000
      g+2     :     0.000000
      g-2     :     0.000000
      g+3     :     0.000000
      g-3     :     0.000000
      g+4     :     0.000000
      g-4     :     0.000000

SPIN
  0 O s       :    -0.000055  s :    -0.000055
      pz      :     0.801164  p :     1.999746
      px      :     0.276464
      py      :     0.922118
      dz2     :     0.000002  d :     0.000055
      dxz     :     0.000024
      dyz     :     0.000003
      dx2y2   :     0.000017
      dxy     :     0.000009
      f0      :     0.000022  f :     0.000254
      f+1     :     0.000052
      f-1     :     0.000006
      f+2     :     0.000048
      f-2     :     0.000039
      f+3     :     0.000043
      f-3     :     0.000044
      g0      :    -0.000000  g :    -0.000000
      g+1     :    -0.000000
      g-1     :    -0.000000
      g+2     :    -0.000000
      g-2     :    -0.000000
      g+3     :    -0.000000
      g-3     :    -0.000000
      g+4     :    -0.000000
      g-4     :    -0.000000


                      *****************************
                      * MAYER POPULATION ANALYSIS *
                      *****************************

  NA   - Mulliken gross atomic population
  ZA   - Total nuclear charge
  QA   - Mulliken gross atomic charge
  VA   - Mayer's total valence
  BVA  - Mayer's bonded valence
  FA   - Mayer's free valence

  ATOM       NA         ZA         QA         VA         BVA        FA
  0 O      8.0000     8.0000     0.0000     2.0106     0.0000     2.0106

  Mayer bond orders larger than 0.100000


-------
TIMINGS
-------

Total SCF time: 0 days 0 hours 0 min 1 sec 

Total time                  ....       1.006 sec
Sum of individual times     ....       0.945 sec  ( 94.0%)

Fock matrix formation       ....       0.845 sec  ( 84.0%)
  Split-RI-J                ....       0.095 sec  ( 11.2% of F)
  Chain of spheres X        ....       0.626 sec  ( 74.0% of F)
  XC integration            ....       0.111 sec  ( 13.2% of F)
    Basis function eval.    ....       0.023 sec  ( 20.3% of XC)
    Density eval.           ....       0.024 sec  ( 21.6% of XC)
    XC-Functional eval.     ....       0.018 sec  ( 16.2% of XC)
    XC-Potential eval.      ....       0.032 sec  ( 28.9% of XC)
Diagonalization             ....       0.022 sec  (  2.2%)
Density matrix formation    ....       0.001 sec  (  0.1%)
Population analysis         ....       0.002 sec  (  0.2%)
Initial guess               ....       0.001 sec  (  0.1%)
Orbital Transformation      ....       0.000 sec  (  0.0%)
Orbital Orthonormalization  ....       0.000 sec  (  0.0%)
DIIS solution               ....       0.018 sec  (  1.8%)
Grid generation             ....       0.056 sec  (  5.6%)

Maximum memory used throughout the entire SCF-calculation: 60.6 MB


           ************************************************************
           *        Program running with 4 parallel MPI-processes     *
           *              working on a common directory               *
           ************************************************************

------------------------------------------------------------------------------
                                ORCA  MP2 
------------------------------------------------------------------------------

Freezing NCore=2 chemical core electrons
Initializing SHARK ... done


------------------------------------------------------------------------------
                           ORCA ORBITAL LOCALIZATION
------------------------------------------------------------------------------

Input orbitals are from                  ... orca.gbw
Output orbitals are to                   ... orca.loc
Max. number of iterations                ... 128
Localizations seeded randomly            ... off
Convergence tolerance                    ... 2.000e-07
Treshold for strong local MOs            ... 9.500e-01
Treshold for bond MOs                    ... 8.500e-01
Operator                                 ... 0
Orbital range for localization           ... 1 to 4
Localization criterion                   ... FOSTER-BOYS (AUGMENTED HESSIAN)
Doing the dipole integrals     ... o.k.
Initial value of the localization sum :     0.000000
ITERATION   0 : L=    1.2563770328 DL=  1.26e+00 (AVERGE_DL)=    0.4575982650 
ITERATION   1 : L=    1.2925990967 DL=  3.62e-02 (AVERGE_DL)=    0.0776982023 
ITERATION   2 : L=    1.2948694495 DL=  2.27e-03 (AVERGE_DL)=    0.0194523042 
ITERATION   3 : L=    1.2950101337 DL=  1.41e-04 (AVERGE_DL)=    0.0048422465 
ITERATION   4 : L=    1.2950194372 DL=  9.30e-06 (AVERGE_DL)=    0.0012452248 
ITERATION   5 : L=    1.2950200855 DL=  6.48e-07 (AVERGE_DL)=    0.0003287072 
LOCALIZATION SUM CONVERGED

------------------------------------------------------
AUGMENTED HESSIAN OPTIMIZATION OF FOSTER-BOYS ORBITALS
------------------------------------------------------

Spin operator:           0
Orbital window:          1 to 4
Number of iterations:    128
Gradient tolerance:      2.000e-07
Number of pairs:         6
Davidson threshold:      2000
Diagonalization method:  LAPACK
Iter:    0   L: 1.2950200855   Grad. norm: 7.976218e-04
   *** Detected a saddle point. ***
       Augmented Hessian eigenvalues:  6.12e-04  4.33e-04 -7.54e-05 -3.98e-04 ... 
Iter:    1   L: 1.2950681635   Grad. norm: 1.005483e-02
Iter:    2   L: 1.2951023223   Grad. norm: 1.753765e-02
Iter:    3   L: 1.2951534245   Grad. norm: 1.203647e-04
Iter:    4   L: 1.2951543712   Grad. norm: 1.424549e-04
   *** Likely close to a maximum now. ***
       Augmented Hessian eigenvalues:  8.22e-09  7.32e-10 -1.10e-03 -1.11e-03 ... 
Iter:    5   L: 1.2951543753   Grad. norm: 1.585531e-07
LOCALIZATION HAS CONVERGED.

Eigenvalues of the Hessian:
  0 -1.496e-12
  1 -1.097e-03
  2 -1.097e-03
  3 -3.260e+00
  4 -3.551e+00
  5 -3.551e+00


--------------------------------------------------------------------------------
                    LOCALIZED MOLECULAR ORBITAL COMPOSITIONS
--------------------------------------------------------------------------------

The Mulliken populations for each LMO on each atom are computed
The LMO`s will be ordered according to atom index and type
  (A) Strongly localized MO`s have populations of >=0.950 on one atom
  (B) Two center bond orbitals have populations of >=0.850 on two atoms
  (C) Other MO`s are considered to be `delocalized`

FOUND  -   4 strongly local MO`s
       -   0 two center bond MO`s
       -   0 significantly delocalized MO`s

Rather strongly localized orbitals:
MO   4:   0O  -   1.000000
MO   3:   0O  -   1.000000
MO   2:   0O  -   1.000000
MO   1:   0O  -   1.000000
Localized MO's were stored in: orca.loc

------------------------------------------------------------------------------
                           ORCA ORBITAL LOCALIZATION
------------------------------------------------------------------------------

Input orbitals are from                  ... orca.loc
Output orbitals are to                   ... orca.loc
Max. number of iterations                ... 128
Localizations seeded randomly            ... off
Convergence tolerance                    ... 2.000e-07
Treshold for strong local MOs            ... 9.500e-01
Treshold for bond MOs                    ... 8.500e-01
Operator                                 ... 1
Orbital range for localization           ... 1 to 2
Localization criterion                   ... FOSTER-BOYS (AUGMENTED HESSIAN)
Doing the dipole integrals     ... o.k.
Initial value of the localization sum :     0.000000
ITERATION   0 : L=    0.9862238604 DL=  9.86e-01 (AVERGE_DL)=    0.9930880426 
ITERATION   1 : L=    0.9862238604 DL=  0.00e+00 (AVERGE_DL)=    0.0000000000 
LOCALIZATION SUM CONVERGED

------------------------------------------------------
AUGMENTED HESSIAN OPTIMIZATION OF FOSTER-BOYS ORBITALS
------------------------------------------------------

Spin operator:           1
Orbital window:          1 to 2
Number of iterations:    128
Gradient tolerance:      2.000e-07
Number of pairs:         1
Davidson threshold:      2000
Diagonalization method:  LAPACK
Iter:    0   L: 0.9862238604   Grad. norm: 8.970701e-17
   *** Likely close to a maximum now. ***
       Augmented Hessian eigenvalues:  1.02e-33 -7.89e+00
Iter:    1   L: 0.9862238604   Grad. norm: 1.130911e-26
LOCALIZATION HAS CONVERGED.

Eigenvalues of the Hessian:
  0 -7.890e+00


--------------------------------------------------------------------------------
                    LOCALIZED MOLECULAR ORBITAL COMPOSITIONS
--------------------------------------------------------------------------------

The Mulliken populations for each LMO on each atom are computed
The LMO`s will be ordered according to atom index and type
  (A) Strongly localized MO`s have populations of >=0.950 on one atom
  (B) Two center bond orbitals have populations of >=0.850 on two atoms
  (C) Other MO`s are considered to be `delocalized`

FOUND  -   2 strongly local MO`s
       -   0 two center bond MO`s
       -   0 significantly delocalized MO`s

Rather strongly localized orbitals:
MO   2:   0O  -   1.000000
MO   1:   0O  -   1.000000
Localized MO's were stored in: orca.loc



Calculating differential overlap integrals ... ok
Threshold for domain construction in prescreening: TCutDOPre = 3.0e-02

--------------------------
ELECTRON PAIR PRESCREENING
--------------------------

Dipole-based pair screening          .... used

   TCutDOij = 1.000000e-05
   TCutPre  = 1.000000e-06
   .... Finished loop over pair list 0
   .... Finished loop over pair list 1
   .... Finished loop over pair list 2

                  ========================================
                     0 OF    6 AA PAIRS WERE SKIPPED 
                     0 OF    1 BB PAIRS WERE SKIPPED 
                     0 OF    8 AB PAIRS WERE SKIPPED 
                  ========================================

Total time spent in the prescreening                  ...     0.000 sec
Sum of pair energies estimated for screened out pairs:
alpha/alpha     ...       0.000000000000 Eh
beta/beta       ...       0.000000000000 Eh
alpha/beta      ...       0.000000000000 Eh
Warning: Number of processes in parallel calculation exceeds number of pairs
      => 3 cores will be idle in parts of the calculation

---------------------------
MAP CONSTRUCTION THRESHOLDS
---------------------------
    TCutMKN     ...     1.0e-03
    TCutDO      ...     1.0e-02
    TCutC(MO)   ...     1.0e-03
    TCutC(PAO)  ...     1.0e-03

--------------------------------
LOCAL RI TRANSFORMATION (IAVPAO)
--------------------------------

Orbital window:       1 to 4
Number of PAOs:      57
Basis functions:     57 (17 shells)
Aux. functions:     141 (33 shells)
Use SHARK:           on

Processing maps (0.0 sec)
Average map sizes:
   Aux shells -> MOs               4.0
   Aux shells -> PAOs             57.0
   MOs        -> AO shells        17.0
   PAOs       -> AO shells        17.0

Calculating integrals (0.0 sec, 0.247 MB)
Sorting integrals (0.0 sec, 0.245 MB)
Total time for the integral transformation: 0.0 sec
--------------------------------
LOCAL RI TRANSFORMATION (IAVPAO)
--------------------------------

Orbital window:       1 to 2
Number of PAOs:      57
Basis functions:     57 (17 shells)
Aux. functions:     141 (33 shells)
Use SHARK:           on

Processing maps (0.0 sec)
Average map sizes:
   Aux shells -> MOs               2.0
   Aux shells -> PAOs             57.0
   MOs        -> AO shells        17.0
   PAOs       -> AO shells        17.0

Calculating integrals (0.0 sec, 0.124 MB)
Sorting integrals (0.0 sec, 0.123 MB)
Total time for the integral transformation: 0.0 sec

----------------------------
Local MP2 Energy Calculation
----------------------------
Number of orbital pairs included:
    alpha/alpha:      6
    beta/beta:        1
    alpha/beta:       8
Truncation parameters:
    PAOOverlapThresh    =        1.000e-08
    TCutPNO             =        1.000e-09

Spin component scaling                      .... not used
MP2 energy scaling factor                   .... 0.270

Formation of AA pair semicanonical amplitudes.
 10% done.
 20% done.
 30% done.
 40% done.
 50% done.
 60% done.
 70% done.
 80% done.
 90% done.
100% done.

Formation of BB pair semicanonical amplitudes.
 10% done.
 20% done.
 30% done.
 40% done.
 50% done.
 60% done.
 70% done.
 80% done.
 90% done.
100% done.

Formation of AB pair semicanonical amplitudes.
 10% done.
 20% done.
 30% done.
 40% done.
 50% done.
 60% done.
 70% done.
 80% done.
 90% done.
100% done.

Finished the LMP2 guess in 0.0 sec.

Average number of PAOs per pair:
alpha/alpha:             57.0
beta/beta:               57.0
alpha/beta (alpha):      57.0
alpha/beta (beta):       57.0
Average number of nrPAOs per pair:
alpha/alpha:             52.0
beta/beta:               54.0
alpha/beta (alpha):      52.0
alpha/beta (beta):       54.0

Average number of PNOs per pair:
alpha/alpha:             38.0
beta/beta:               38.0
alpha/beta (alpha):      50.2
alpha/beta (beta):       50.2

Average number of AUX functions per pair:
alpha/alpha:            141.0
beta/beta:              141.0
alpha/beta:             141.0

Semicanonical MP2 energy contributions by spin pairs:
alpha/alpha:               -0.009987379962 Eh
beta/beta:                 -0.001448948633 Eh
alpha/beta:                -0.037077873647 Eh
Semicanonical MP2 energy contributions in PNO basis by spin pairs:
alpha/alpha:               -0.009987377050 Eh
beta/beta:                 -0.001448948633 Eh
alpha/beta:                -0.037077375515 Eh

Initial amplitudes guess done. Entering DLPNO-MP2 iteration loop:
   Max. no of iterations          ...  100
   Energy convergence tolerance   ...    1.0e-09 Eh
   Residual convergence tolerance ...    5.0e-09
   Fock matrix cutoff             ...    1.0e-05 Eh
   Max # vectors in DIIS          ...  7
   Start iteration of DIIS        ...  0
   Levelshift                     ...  2.000e-01 Eh
   Damping before turning on DIIS ...  5.000e-01
   Damping after turning on DIIS  ...  0.000e+00


AA residual iterations:

                           *** Turning on DIIS ***
Iter=   0:  ECORR(AA)= -0.010308808452  DE=   3.2e-04 RMAX=   4.0e-03
Iter=   1:  ECORR(AA)= -0.010349830995  DE=   4.1e-05 RMAX=   5.6e-04
Iter=   2:  ECORR(AA)= -0.010351261697  DE=   1.4e-06 RMAX=   3.7e-05
Iter=   3:  ECORR(AA)= -0.010351265618  DE=   3.9e-09 RMAX=   1.8e-06
Iter=   4:  ECORR(AA)= -0.010351264269  DE=   1.3e-09 RMAX=   5.2e-08
Iter=   5:  ECORR(AA)= -0.010351264211  DE=   5.8e-11 RMAX=   3.0e-09 => CONVERGED

BB residual iterations:

                           *** Turning on DIIS ***
Iter=   0:  ECORR(BB)= -0.001448948633  DE=   7.6e-18 RMAX=   9.7e-16 => CONVERGED

AB residual iterations:

                           *** Turning on DIIS ***
Iter=   0:  ECORR(AB)= -0.036979396714  DE=   9.8e-05 RMAX=   9.3e-03
Iter=   1:  ECORR(AB)= -0.037266404399  DE=   2.9e-04 RMAX=   3.0e-03
Iter=   2:  ECORR(AB)= -0.037298696182  DE=   3.2e-05 RMAX=   7.8e-04
Iter=   3:  ECORR(AB)= -0.037305049536  DE=   6.4e-06 RMAX=   1.6e-04
Iter=   4:  ECORR(AB)= -0.037305458279  DE=   4.1e-07 RMAX=   2.9e-05
Iter=   5:  ECORR(AB)= -0.037305423239  DE=   3.5e-08 RMAX=   3.8e-06
Iter=   6:  ECORR(AB)= -0.037305420829  DE=   2.4e-09 RMAX=   7.9e-07
Iter=   7:  ECORR(AB)= -0.037305421521  DE=   6.9e-10 RMAX=   1.6e-07
Iter=   8:  ECORR(AB)= -0.037305421527  DE=   5.6e-12 RMAX=   1.8e-08
Iter=   9:  ECORR(AB)= -0.037305421519  DE=   7.8e-12 RMAX=   2.3e-09 => CONVERGED

Finished the DLPNO-MP2 iterations in 0.0 sec.

Alpha/Alpha pairs:
LMP2 correlation energy (all non-screened pairs)      ...     -0.010351264211 Eh
Semicanonical PNO correction to energy                ...     -0.000000002912 Eh
Sum of pair energies estimated for screened out pairs ...      0.000000000000 Eh
                                                         -----------------------
Total:                                                ...     -0.010351267123 Eh

Beta/Beta pairs:
LMP2 correlation energy (all non-screened pairs)      ...     -0.001448948633 Eh
Semicanonical PNO correction to energy                ...     -0.000000000000 Eh
Sum of pair energies estimated for screened out pairs ...      0.000000000000 Eh
                                                         -----------------------
Total:                                                ...     -0.001448948633 Eh

Alpha/Beta pairs:
LMP2 correlation energy (all non-screened pairs)      ...     -0.037305421519 Eh
Semicanonical PNO correction to energy                ...     -0.000000498132 Eh
Sum of pair energies estimated for screened out pairs ...      0.000000000000 Eh
                                                         -----------------------
Total:                                                ...     -0.037305919651 Eh

------------------------------------------------------
 DLPNO-MP2 CORRELATION ENERGY:      -0.049106135407 Eh
------------------------------------------------------

TIMINGS FOR DLPNO-MP2:
Localization                             ...        0.144 sec
Differential overlap integrals           ...        0.108 sec
Prescreening                             ...        0.139 sec
Map setup                                ...        0.001 sec
(ia|v) trafo                             ...        0.010 sec
Semicanonical amplitudes                 ...        0.006 sec
PNO construction                         ...        0.003 sec
DLPNO-MP2 iterations                     ...        0.025 sec
                                             ----------------
Total time                                          0.652 sec


---------------------------------------
MP2 TOTAL ENERGY:      -75.059707955 Eh
---------------------------------------

Maximum memory used throughout the entire MP2-calculation: 122.7 MB

-------------------------   --------------------
FINAL SINGLE POINT ENERGY       -75.059707954747
-------------------------   --------------------


                            ***************************************
                            *     ORCA property calculations      *
                            ***************************************


  WARNING: The energy has been calculated at the MP2 level but the densities
           used in the property calculations are still SCF densities
           MP2 response densities have not been calculated 
           use %mp2 Density relaxed end
           or  %mp2 Density unrelaxed end

                                    ---------------------
                                    Active property flags
                                    ---------------------
   (+) Dipole Moment


------------------------------------------------------------------------------
                       ORCA ELECTRIC PROPERTIES CALCULATION
------------------------------------------------------------------------------

Dipole Moment Calculation                       ... on
Quadrupole Moment Calculation                   ... off
Polarizability Calculation                      ... off
GBWName                                         ... orca.gbw
Electron density                                ... orca.scfp
The origin for moment calculation is the CENTER OF MASS  = ( 0.000000,  0.000000  0.000000)

-------------
DIPOLE MOMENT
-------------
                                X             Y             Z
Electronic contribution:     -0.00000      -0.00000      -0.00000
Nuclear contribution   :      0.00000       0.00000       0.00000
                        -----------------------------------------
Total Dipole Moment    :     -0.00000      -0.00000      -0.00000
                        -----------------------------------------
Magnitude (a.u.)       :      0.00000
Magnitude (Debye)      :      0.00000



--------------------
Rotational spectrum 
--------------------
 
Rotational constants in cm-1:     0.000000     0.000000     0.000000 
Rotational constants in MHz :     0.000000     0.000000     0.000000 

 Dipole components along the rotational axes: 
x,y,z [a.u.] :    -0.000000    -0.000000    -0.000000 
x,y,z [Debye]:    -0.000000    -0.000000    -0.000000 

 

Timings for individual modules:

Sum of individual times         ...        2.169 sec (=   0.036 min)
GTO integral calculation        ...        0.249 sec (=   0.004 min)  11.5 %
SCF iterations                  ...        1.119 sec (=   0.019 min)  51.6 %
MP2 module                      ...        0.801 sec (=   0.013 min)  36.9 %
                             ****ORCA TERMINATED NORMALLY****
TOTAL RUN TIME: 0 days 0 hours 0 minutes 2 seconds 349 msec
