 vasp.6.2.0 18Jan21 (build Mar 03 2021 13:27:41) complex                        
  
 executed on             LinuxIFC date 2021.06.30  01:59:43
 running on   80 total cores
 distrk:  each k-point on   80 cores,    1 groups
 distr:  one band on NCORE=  20 cores,    4 groups


--------------------------------------------------------------------------------------------------------


 INCAR:
   SYSTEM = TiO2-rutile
   ISMEAR = 0
   SIGMA = 0.05
   EDIFF = 1E-5
   ALGO = Fast
   ISTART = 1
   ISYM = 0
   IBRION = -1
   NSW = 0
   EDIFFG = -0.01
   ENCUT = 500
   PREC = Accurate
   LASPH = .TRUE.
   LREAL = Auto
   ISPIN = 1
   NELM = 500
   NELMIN = 4
   NCORE = 20
   LWAVE = .FALSE.
   LCHARG = .FALSE.
   LORBIT = 11

 POTCAR:    PAW_PBE Ti_sv 26Sep2005               
 POTCAR:    PAW_PBE O 08Apr2002                   
 -----------------------------------------------------------------------------
|                                                                             |
|           W    W    AA    RRRRR   N    N  II  N    N   GGGG   !!!           |
|           W    W   A  A   R    R  NN   N  II  NN   N  G    G  !!!           |
|           W    W  A    A  R    R  N N  N  II  N N  N  G       !!!           |
|           W WW W  AAAAAA  RRRRR   N  N N  II  N  N N  G  GGG   !            |
|           WW  WW  A    A  R   R   N   NN  II  N   NN  G    G                |
|           W    W  A    A  R    R  N    N  II  N    N   GGGG   !!!           |
|                                                                             |
|     For optimal performance we recommend to set                             |
|       NCORE = 2 up to number-of-cores-per-socket                            |
|     NCORE specifies how many cores store one orbital (NPAR=cpu/NCORE).      |
|     This setting can greatly improve the performance of VASP for DFT.       |
|     The default, NCORE=1 might be grossly inefficient on modern             |
|     multi-core architectures or massively parallel machines. Do your        |
|     own testing! More info at https://www.vasp.at/wiki/index.php/NCORE      |
|     Unfortunately you need to use the default for GW and RPA                |
|     calculations (for HF NCORE is supported but not extensively tested      |
|     yet).                                                                   |
|                                                                             |
 -----------------------------------------------------------------------------

 POTCAR:    PAW_PBE Ti_sv 26Sep2005               
   SHA256 =  4d747badb5a5ea28d858fbac70885b3f8929d6fd9e5b0dbe1ecb9878dc164da1 Ti_sv/POTCAR          
   COPYR  = (c) Copyright 26Sep2005 Georg Kresse                                                    
   COPYR  = This file is part of the software VASP. Any use, copying, and all other rights are regul
   COPYR  = If you do not have a valid VASP license, you may not use, copy or distribute this file. 
   VRHFIN =Ti: 3p4s3d                                                                               
   LEXCH  = PE                                                                                      
   EATOM  =  1588.0892 eV,  116.7213 Ry                                                             
                                                                                                    
   TITEL  = PAW_PBE Ti_sv 26Sep2005                                                                 
   LULTRA =        F    use ultrasoft PP ?                                                          
   IUNSCR =        1    unscreen: 0-lin 1-nonlin 2-no                                               
   RPACOR =    2.000    partial core radius                                                         
   POMASS =   47.880; ZVAL   =   12.000    mass and valenz                                          
   RCORE  =    2.300    outmost cutoff radius                                                       
   RWIGS  =    2.300; RWIGS  =    1.217    wigner-seitz radius (au A)                               
   ENMAX  =  274.610; ENMIN  =  205.957 eV                                                          
   ICORE  =        3    local potential                                                             
   LCOR   =        T    correct aug charges                                                         
   LPAW   =        T    paw PP                                                                      
   EAUG   =  482.848                                                                                
   RMAX   =    2.348    core radius for proj-oper                                                   
   RAUG   =    1.300    factor for augmentation sphere                                              
   RDEP   =    2.381    radius for radial grids                                                     
   RDEPT  =    1.930    core radius for aug-charge                                                  
                                                                                                    
   Atomic configuration                                                                             
    8 entries                                                                                       
     n  l   j            E        occ.                                                              
     1  0  0.50     -4865.3608   2.0000                                                             
     2  0  0.50      -533.1368   2.0000                                                             
     2  1  1.50      -440.5031   6.0000                                                             
     3  0  0.50       -59.3186   2.0000                                                             
     4  0  0.50        -3.7291   1.0000                                                             
     3  1  1.50       -35.7012   6.0000                                                             
     3  2  2.50        -1.9157   3.0000                                                             
     4  3  2.50        -1.3606   0.0000                                                             
   Description                                                                                      
     l       E           TYP  RCUT    TYP  RCUT                                                     
     0    -59.3185931     23  1.800                                                                 
     0     -3.7290822     23  2.300                                                                 
     1    -35.7012045     23  2.300                                                                 
     1     -1.3605826     23  2.300                                                                 
     2     -1.9156920     23  2.300                                                                 
     2     -0.0236318     23  2.300                                                                 
     3     -1.3605826     23  2.300                                                                 
  local pseudopotential read in
  partial core-charges read in
  partial kinetic energy density read in
  atomic valenz-charges read in
  non local Contribution for L=           0  read in
    real space projection operators read in
  non local Contribution for L=           0  read in
    real space projection operators read in
  non local Contribution for L=           1  read in
    real space projection operators read in
  non local Contribution for L=           1  read in
    real space projection operators read in
  non local Contribution for L=           2  read in
    real space projection operators read in
  non local Contribution for L=           2  read in
    real space projection operators read in
    PAW grid and wavefunctions read in
 
   number of l-projection  operators is LMAX  =           6
   number of lm-projection operators is LMMAX =          18
 
 POTCAR:    PAW_PBE O 08Apr2002                   
   SHA256 =  818f92134a0a090dccd8ba1447fa70422a3b330e708bb4f08108d8ae51209ddf O/POTCAR              
   COPYR  = (c) Copyright 08Apr2002 Georg Kresse                                                    
   COPYR  = This file is part of the software VASP. Any use, copying, and all other rights are regul
   COPYR  = If you do not have a valid VASP license, you may not use, copy or distribute this file. 
   VRHFIN =O: s2p4                                                                                  
   LEXCH  = PE                                                                                      
   EATOM  =   432.3788 eV,   31.7789 Ry                                                             
                                                                                                    
   TITEL  = PAW_PBE O 08Apr2002                                                                     
   LULTRA =        F    use ultrasoft PP ?                                                          
   IUNSCR =        1    unscreen: 0-lin 1-nonlin 2-no                                               
   RPACOR =    1.200    partial core radius                                                         
   POMASS =   16.000; ZVAL   =    6.000    mass and valenz                                          
   RCORE  =    1.520    outmost cutoff radius                                                       
   RWIGS  =    1.550; RWIGS  =    0.820    wigner-seitz radius (au A)                               
   ENMAX  =  400.000; ENMIN  =  300.000 eV                                                          
   ICORE  =        2    local potential                                                             
   LCOR   =        T    correct aug charges                                                         
   LPAW   =        T    paw PP                                                                      
   EAUG   =  605.392                                                                                
   DEXC   =    0.000                                                                                
   RMAX   =    1.553    core radius for proj-oper                                                   
   RAUG   =    1.300    factor for augmentation sphere                                              
   RDEP   =    1.550    radius for radial grids                                                     
   RDEPT  =    1.329    core radius for aug-charge                                                  
                                                                                                    
   Atomic configuration                                                                             
    4 entries                                                                                       
     n  l   j            E        occ.                                                              
     1  0  0.50      -514.6923   2.0000                                                             
     2  0  0.50       -23.9615   2.0000                                                             
     2  1  0.50        -9.0305   4.0000                                                             
     3  2  1.50        -9.5241   0.0000                                                             
   Description                                                                                      
     l       E           TYP  RCUT    TYP  RCUT                                                     
     0    -23.9615318     23  1.200                                                                 
     0     -9.5240782     23  1.200                                                                 
     1     -9.0304911     23  1.520                                                                 
     1      8.1634956     23  1.520                                                                 
     2     -9.5240782      7  1.500                                                                 
  local pseudopotential read in
  partial core-charges read in
  partial kinetic energy density read in
  kinetic energy density of atom read in
  atomic valenz-charges read in
  non local Contribution for L=           0  read in
    real space projection operators read in
  non local Contribution for L=           0  read in
    real space projection operators read in
  non local Contribution for L=           1  read in
    real space projection operators read in
  non local Contribution for L=           1  read in
    real space projection operators read in
    PAW grid and wavefunctions read in
 
   number of l-projection  operators is LMAX  =           4
   number of lm-projection operators is LMMAX =           8
 
 Optimization of the real space projectors (new method)

 maximal supplied QI-value         = 16.25
 optimisation between [QCUT,QGAM] = [ 11.38, 22.75] = [ 36.24,144.96] Ry 
 Optimized for a Real-space Cutoff    1.27 Angstroem

   l    n(q)    QCUT    max X(q) W(low)/X(q) W(high)/X(q)  e(spline) 
   0      9    11.376    12.277    0.53E-04    0.25E-04    0.25E-07
   0      9    11.376    11.419    0.89E-04    0.67E-05    0.35E-07
   1      8    11.376     4.010    0.13E-03    0.11E-03    0.29E-07
   1      8    11.376     6.182    0.94E-04    0.19E-03    0.11E-06
   2      8    11.376    47.177    0.13E-03    0.88E-03    0.24E-06
   2      8    11.376    42.437    0.13E-03    0.86E-03    0.23E-06
 Optimization of the real space projectors (new method)

 maximal supplied QI-value         = 24.76
 optimisation between [QCUT,QGAM] = [ 11.39, 22.77] = [ 36.31,145.25] Ry 
 Optimized for a Real-space Cutoff    1.10 Angstroem

   l    n(q)    QCUT    max X(q) W(low)/X(q) W(high)/X(q)  e(spline) 
   0      7    11.387    20.381    0.22E-03    0.48E-03    0.18E-06
   0      7    11.387    15.268    0.22E-03    0.52E-03    0.19E-06
   1      7    11.387     5.964    0.22E-03    0.73E-03    0.24E-06
   1      7    11.387     5.382    0.19E-03    0.60E-03    0.21E-06
  PAW_PBE Ti_sv 26Sep2005               :
 energy of atom  1       EATOM=-1588.0892
 kinetic energy error for atom=    0.0046 (will be added to EATOM!!)
  PAW_PBE O 08Apr2002                   :
 energy of atom  2       EATOM= -432.3788
 kinetic energy error for atom=    0.0224 (will be added to EATOM!!)
 
 
 POSCAR: Ti  O
  positions in direct lattice
  velocities in cartesian coordinates
 exchange correlation table for  LEXCH =        8
   RHO(1)=    0.500       N(1)  =     2000
   RHO(2)=  100.500       N(2)  =     4000
 


--------------------------------------------------------------------------------------------------------


 ion  position               nearest neighbor table
   1  0.500  0.125  0.286-  84 1.96 104 1.96 103 1.96  83 1.96  81 2.00  82 2.00
   2  0.750  0.000  0.286-  82 1.96 141 1.96 160 1.96 220 1.96  87 2.00
   3  0.250  0.125  0.393-  88 1.96 108 1.96 166 1.96 186 1.96  86 2.00 164 2.00
   4  0.500  0.000  0.393-  85 1.96  86 1.96 144 1.96 145 1.96  91 2.00  84 2.00
   5  0.500  0.125  0.500-  91 1.96  92 1.96 111 1.96 112 1.96  89 2.00  90 2.00
   6  0.750  0.000  0.500-  90 1.96 149 1.96 168 1.96 228 1.96 167 2.00 174 2.03
   7  0.752  0.125  0.605- 174 1.91 194 1.91 173 1.94  93 2.02 175 2.04 195 2.04
   8  0.500  1.000  0.615-  99 1.88 152 1.98  93 1.98 153 1.98  94 1.98  92 2.25
   9  0.500  0.122  0.725- 100 1.83 120 1.83  98 2.05  97 2.05  99 2.10 119 2.16  19 2.82  39 2.91

  10  0.748  1.000  0.710- 175 1.81 157 1.95  98 1.95 236 1.97 176 1.97
  11  0.500  0.375  0.286- 104 1.96 124 1.96 123 1.96 103 1.96 101 2.00 102 2.00
  12  0.750  0.250  0.286-  82 1.96 102 1.96 160 1.96 180 1.96 107 2.00
  13  0.250  0.375  0.393- 108 1.96 128 1.96 186 1.96 206 1.96 106 2.00 184 2.00
  14  0.500  0.250  0.393-  85 1.96  86 1.96 105 1.96 106 1.96 111 2.00 104 2.00
  15  0.500  0.375  0.500- 111 1.96 112 1.96 131 1.96 132 1.96 109 2.00 110 2.00
  16  0.750  0.250  0.500-  90 1.96 110 1.96 168 1.96 188 1.96 187 2.00 194 2.03
  17  0.751  0.375  0.605- 194 1.91 214 1.91 193 1.95 113 2.02 215 2.03 195 2.04
  18  0.500  0.247  0.605- 112 1.93  93 1.94  94 1.94 113 2.00 114 2.00 119 2.09
  19  0.500  0.357  0.710- 119 1.77 120 1.86 139 1.95 117 2.04 118 2.04   9 2.82
  20  0.751  0.250  0.710- 195 1.81 196 1.93 176 1.93  98 1.98 118 2.02
  21  0.500  0.625  0.286- 124 1.96 143 1.96 142 1.96 123 1.96 121 2.00 122 2.00
  22  0.750  0.500  0.286- 102 1.96 122 1.96 180 1.96 200 1.96 127 2.00
  23  0.250  0.625  0.393- 128 1.96 147 1.96 206 1.96 226 1.96 126 2.00 204 2.00
  24  0.500  0.500  0.393- 105 1.96 106 1.96 125 1.96 126 1.96 131 2.00 124 2.00
  25  0.500  0.625  0.500- 131 1.96 132 1.96 150 1.96 151 1.96 129 2.00 130 2.00
  26  0.750  0.500  0.500- 110 1.96 130 1.96 188 1.96 208 1.96 207 2.00 214 2.03
  27  0.751  0.625  0.605- 234 1.91 214 1.91 213 1.95 133 2.02 215 2.03 235 2.04
  28  0.500  0.500  0.607- 114 1.96 113 1.96 134 1.96 133 1.96 132 2.01 139 2.20
  29  0.500  0.643  0.710- 158 1.77 159 1.86 139 1.95 137 2.04 138 2.04  39 2.82
  30  0.746  0.500  0.709- 215 1.81 138 1.95 118 1.95 216 1.97 196 1.97
  31  0.500  0.875  0.286-  84 1.96 143 1.96 142 1.96  83 1.96 140 2.00 141 2.00
  32  0.750  0.750  0.286- 122 1.96 141 1.96 200 1.96 220 1.96 146 2.00
  33  0.250  0.875  0.393-  88 1.96 147 1.96 166 1.96 226 1.96 224 2.00 145 2.00
  34  0.500  0.750  0.393- 125 1.96 126 1.96 144 1.96 145 1.96 150 2.00 143 2.00
  35  0.500  0.875  0.500-  91 1.96  92 1.96 150 1.96 151 1.96 148 2.00 149 2.00
  36  0.750  0.750  0.500- 130 1.96 149 1.96 208 1.96 228 1.96 227 2.00 234 2.03
  37  0.752  0.875  0.605- 174 1.91 234 1.91 233 1.94 152 2.02 175 2.04 235 2.04
  38  0.500  0.753  0.605- 151 1.93 152 1.94 153 1.94 133 2.00 134 2.00 158 2.09
  39  0.500  0.877  0.726- 100 1.83 159 1.83 156 2.05 157 2.05  99 2.10 158 2.16  29 2.82   9 2.91

  40  0.751  0.750  0.710- 235 1.81 236 1.93 216 1.93 157 1.98 138 2.02
  41  0.000  0.125  0.286- 163 1.96 183 1.96 182 1.96 162 1.96 160 2.00 161 2.00
  42  0.250  0.000  0.286-  81 1.96 140 1.96 161 1.96 221 1.96 166 2.00
  43  0.750  0.125  0.393- 167 1.96 187 1.96  87 1.96 107 1.96  85 2.00 165 2.00
  44  0.000  0.000  0.393- 164 1.96 165 1.96 224 1.96 225 1.96 170 2.00 163 2.00
  45  0.000  0.125  0.500- 170 1.96 171 1.96 190 1.96 191 1.96 168 2.00 169 2.00
  46  0.250  0.000  0.500-  89 1.96 148 1.96 169 1.96 229 1.96  88 2.00  95 2.03
  47  0.248  0.125  0.605-  95 1.91 115 1.91 172 1.94  94 2.02  96 2.04 116 2.04
  48  0.000  0.000  0.611- 178 1.88 172 1.99 232 1.99 173 1.99 233 1.99 171 2.12
  49  0.000  0.125  0.721- 179 1.83 199 1.84 177 2.06 176 2.06 178 2.10 198 2.10
  50  0.252  0.000  0.710-  96 1.81  97 1.95 156 1.95 177 1.97 237 1.97
  51  0.000  0.375  0.286- 183 1.96 203 1.96 202 1.96 182 1.96 180 2.00 181 2.00
  52  0.250  0.250  0.286-  81 1.96 101 1.96 161 1.96 181 1.96 186 2.00
  53  0.750  0.375  0.393- 187 1.96 207 1.96 107 1.96 127 1.96 105 2.00 185 2.00
  54  0.000  0.250  0.393- 164 1.96 165 1.96 184 1.96 185 1.96 190 2.00 183 2.00
  55  0.000  0.375  0.500- 190 1.96 191 1.96 210 1.96 211 1.96 188 2.00 189 2.00
  56  0.250  0.250  0.500-  89 1.96 109 1.96 169 1.96 189 1.96 108 2.00 115 2.03
  57  0.249  0.375  0.605- 115 1.91 135 1.91 192 1.95 114 2.02 136 2.03 116 2.04
  58  0.000  0.250  0.611- 198 1.88 192 1.99 193 1.99 172 1.99 173 1.99 191 2.12
  59  0.000  0.375  0.721- 199 1.83 219 1.83 197 2.09 196 2.09 218 2.10 198 2.10
  60  0.249  0.250  0.710- 116 1.81 177 1.93 197 1.93  97 1.98 117 2.02
  61  0.000  0.625  0.286- 203 1.96 223 1.96 222 1.96 202 1.96 200 2.00 201 2.00
  62  0.250  0.500  0.286- 101 1.96 121 1.96 181 1.96 201 1.96 206 2.00
  63  0.750  0.625  0.393- 207 1.96 227 1.96 127 1.96 146 1.96 125 2.00 205 2.00
  64  0.000  0.500  0.393- 184 1.96 185 1.96 204 1.96 205 1.96 210 2.00 203 2.00
  65  0.000  0.625  0.500- 210 1.96 211 1.96 230 1.96 231 1.96 208 2.00 209 2.00
  66  0.250  0.500  0.500- 109 1.96 129 1.96 189 1.96 209 1.96 128 2.00 135 2.03
  67  0.249  0.625  0.605- 154 1.91 135 1.91 212 1.95 134 2.02 136 2.03 155 2.04
  68  1.000  0.500  0.611- 218 1.89 193 1.99 213 1.99 192 1.99 212 1.99 211 2.12
  69  1.000  0.625  0.721- 239 1.83 219 1.83 216 2.09 217 2.09 218 2.10 238 2.10
  70  0.254  0.500  0.709- 136 1.81 117 1.95 137 1.95 197 1.97 217 1.97
  71  0.000  0.875  0.286- 163 1.96 223 1.96 222 1.96 162 1.96 220 2.00 221 2.00
  72  0.250  0.750  0.286- 121 1.96 140 1.96 201 1.96 221 1.96 226 2.00
  73  0.750  0.875  0.393- 167 1.96 227 1.96  87 1.96 146 1.96 225 2.00 144 2.00
  74  0.000  0.750  0.393- 204 1.96 205 1.96 224 1.96 225 1.96 230 2.00 223 2.00
  75  0.000  0.875  0.500- 170 1.96 171 1.96 230 1.96 231 1.96 228 2.00 229 2.00
  76  0.250  0.750  0.500- 129 1.96 148 1.96 209 1.96 229 1.96 147 2.00 154 2.03
  77  0.248  0.875  0.605-  95 1.91 154 1.91 232 1.94 153 2.02  96 2.04 155 2.04
  78  0.000  0.750  0.611- 238 1.88 212 1.99 213 1.99 232 1.99 233 1.99 231 2.12
  79  0.000  0.875  0.721- 179 1.83 239 1.84 237 2.06 236 2.06 178 2.10 238 2.10
  80  0.249  0.750  0.710- 155 1.81 237 1.93 217 1.93 156 1.98 137 2.02
  81  0.348  0.125  0.286-  42 1.96  52 1.96   1 2.00
  82  0.652  0.125  0.286-   2 1.96  12 1.96   1 2.00
  83  0.500  0.000  0.244-   1 1.96  31 1.96
  84  0.500  0.000  0.328-   1 1.96  31 1.96   4 2.00
  85  0.598  0.125  0.393-   4 1.96  14 1.96  43 2.00
  86  0.402  0.125  0.393-   4 1.96  14 1.96   3 2.00
  87  0.750  0.000  0.351-  43 1.96  73 1.96   2 2.00
  88  0.250  0.000  0.435-   3 1.96  33 1.96  46 2.00
  89  0.348  0.125  0.500-  46 1.96  56 1.96   5 2.00
  90  0.652  0.125  0.500-   6 1.96  16 1.96   5 2.00
  91  0.500  0.000  0.458-   5 1.96  35 1.96   4 2.00
  92  0.500  0.000  0.542-   5 1.96  35 1.96   8 2.25
  93  0.598  0.125  0.608-  18 1.94   8 1.98   7 2.02
  94  0.402  0.125  0.608-  18 1.94   8 1.98  47 2.02
  95  0.251  1.000  0.566-  77 1.91  47 1.91  46 2.03
  96  0.252  0.000  0.651-  50 1.81  77 2.04  47 2.04
  97  0.344  0.125  0.722-  50 1.95  60 1.98   9 2.05
  98  0.656  0.125  0.722-  10 1.95  20 1.98   9 2.05
  99  0.500  1.000  0.676-   8 1.88   9 2.10  39 2.10
 100  0.500  1.000  0.762-   9 1.83  39 1.83
 101  0.348  0.375  0.286-  52 1.96  62 1.96  11 2.00
 102  0.652  0.375  0.286-  12 1.96  22 1.96  11 2.00
 103  0.500  0.250  0.244-   1 1.96  11 1.96
 104  0.500  0.250  0.328-   1 1.96  11 1.96  14 2.00
 105  0.598  0.375  0.393-  14 1.96  24 1.96  53 2.00
 106  0.402  0.375  0.393-  14 1.96  24 1.96  13 2.00
 107  0.750  0.250  0.351-  43 1.96  53 1.96  12 2.00
 108  0.250  0.250  0.435-   3 1.96  13 1.96  56 2.00
 109  0.348  0.375  0.500-  56 1.96  66 1.96  15 2.00
 110  0.652  0.375  0.500-  16 1.96  26 1.96  15 2.00
 111  0.500  0.250  0.458-   5 1.96  15 1.96  14 2.00
 112  0.500  0.250  0.542-  18 1.93  15 1.96   5 1.96
 113  0.598  0.376  0.609-  28 1.96  18 2.00  17 2.02
 114  0.402  0.376  0.609-  28 1.96  18 2.00  57 2.02
 115  0.252  0.250  0.566-  57 1.91  47 1.91  56 2.03
 116  0.251  0.250  0.651-  60 1.81  57 2.04  47 2.04
 117  0.348  0.376  0.721-  70 1.95  60 2.02  19 2.04
 118  0.652  0.376  0.721-  30 1.95  20 2.02  19 2.04
 119  0.500  0.243  0.673-  19 1.77  18 2.09   9 2.16
 120  0.500  0.255  0.756-   9 1.83  19 1.86
 121  0.348  0.625  0.286-  62 1.96  72 1.96  21 2.00
 122  0.652  0.625  0.286-  22 1.96  32 1.96  21 2.00
 123  0.500  0.500  0.244-  11 1.96  21 1.96
 124  0.500  0.500  0.328-  11 1.96  21 1.96  24 2.00
 125  0.598  0.625  0.393-  24 1.96  34 1.96  63 2.00
 126  0.402  0.625  0.393-  24 1.96  34 1.96  23 2.00
 127  0.750  0.500  0.351-  53 1.96  63 1.96  22 2.00
 128  0.250  0.500  0.435-  13 1.96  23 1.96  66 2.00
 129  0.348  0.625  0.500-  66 1.96  76 1.96  25 2.00
 130  0.652  0.625  0.500-  26 1.96  36 1.96  25 2.00
 131  0.500  0.500  0.458-  15 1.96  25 1.96  24 2.00
 132  0.500  0.500  0.542-  15 1.96  25 1.96  28 2.01
 133  0.598  0.624  0.609-  28 1.96  38 2.00  27 2.02
 134  0.402  0.624  0.609-  28 1.96  38 2.00  67 2.02
 135  0.251  0.500  0.566-  67 1.91  57 1.91  66 2.03
 136  0.251  0.500  0.651-  70 1.81  57 2.03  67 2.03
 137  0.348  0.624  0.721-  70 1.95  80 2.02  29 2.04
 138  0.652  0.624  0.721-  30 1.95  40 2.02  29 2.04
 139  0.500  0.500  0.679-  29 1.95  19 1.95  28 2.20
 140  0.348  0.875  0.286-  42 1.96  72 1.96  31 2.00
 141  0.652  0.875  0.286-   2 1.96  32 1.96  31 2.00
 142  0.500  0.750  0.244-  21 1.96  31 1.96
 143  0.500  0.750  0.328-  21 1.96  31 1.96  34 2.00
 144  0.598  0.875  0.393-   4 1.96  34 1.96  73 2.00
 145  0.402  0.875  0.393-   4 1.96  34 1.96  33 2.00
 146  0.750  0.750  0.351-  63 1.96  73 1.96  32 2.00
 147  0.250  0.750  0.435-  23 1.96  33 1.96  76 2.00
 148  0.348  0.875  0.500-  46 1.96  76 1.96  35 2.00
 149  0.652  0.875  0.500-   6 1.96  36 1.96  35 2.00
 150  0.500  0.750  0.458-  25 1.96  35 1.96  34 2.00
 151  0.500  0.750  0.542-  38 1.93  35 1.96  25 1.96
 152  0.598  0.875  0.608-  38 1.94   8 1.98  37 2.02
 153  0.402  0.875  0.608-  38 1.94   8 1.98  77 2.02
 154  0.252  0.750  0.566-  67 1.91  77 1.91  76 2.03
 155  0.251  0.750  0.651-  80 1.81  67 2.04  77 2.04
 156  0.344  0.875  0.722-  50 1.95  80 1.98  39 2.05
 157  0.656  0.875  0.722-  10 1.95  40 1.98  39 2.05
 158  0.500  0.757  0.673-  29 1.77  38 2.09  39 2.16
 159  0.500  0.745  0.756-  39 1.83  29 1.86
 160  0.848  0.125  0.286-   2 1.96  12 1.96  41 2.00
 161  0.152  0.125  0.286-  42 1.96  52 1.96  41 2.00
 162  0.000  0.000  0.244-  41 1.96  71 1.96
 163  0.000  0.000  0.328-  41 1.96  71 1.96  44 2.00
 164  0.098  0.125  0.393-  44 1.96  54 1.96   3 2.00
 165  0.902  0.125  0.393-  44 1.96  54 1.96  43 2.00
 166  0.250  0.000  0.351-   3 1.96  33 1.96  42 2.00
 167  0.750  0.000  0.435-  43 1.96  73 1.96   6 2.00
 168  0.848  0.125  0.500-   6 1.96  16 1.96  45 2.00
 169  0.152  0.125  0.500-  46 1.96  56 1.96  45 2.00
 170  0.000  0.000  0.458-  45 1.96  75 1.96  44 2.00
 171  0.000  0.000  0.542-  45 1.96  75 1.96  48 2.12
 172  0.100  0.125  0.608-  47 1.94  48 1.99  58 1.99
 173  0.900  0.125  0.608-   7 1.94  48 1.99  58 1.99
 174  0.749  0.000  0.566-  37 1.91   7 1.91   6 2.03
 175  0.748  1.000  0.651-  10 1.81  37 2.04   7 2.04
 176  0.843  0.125  0.720-  20 1.93  10 1.97  49 2.06
 177  0.157  0.125  0.720-  60 1.93  50 1.97  49 2.06
 178  1.000  0.000  0.672-  48 1.88  49 2.10  79 2.10
 179  1.000  1.000  0.756-  79 1.83  49 1.83
 180  0.848  0.375  0.286-  12 1.96  22 1.96  51 2.00
 181  0.152  0.375  0.286-  52 1.96  62 1.96  51 2.00
 182  0.000  0.250  0.244-  41 1.96  51 1.96
 183  0.000  0.250  0.328-  41 1.96  51 1.96  54 2.00
 184  0.098  0.375  0.393-  54 1.96  64 1.96  13 2.00
 185  0.902  0.375  0.393-  54 1.96  64 1.96  53 2.00
 186  0.250  0.250  0.351-   3 1.96  13 1.96  52 2.00
 187  0.750  0.250  0.435-  43 1.96  53 1.96  16 2.00
 188  0.848  0.375  0.500-  16 1.96  26 1.96  55 2.00
 189  0.152  0.375  0.500-  56 1.96  66 1.96  55 2.00
 190  0.000  0.250  0.458-  45 1.96  55 1.96  54 2.00
 191  0.000  0.250  0.542-  45 1.96  55 1.96  58 2.12
 192  0.100  0.375  0.608-  57 1.95  58 1.99  68 1.99
 193  0.900  0.375  0.608-  17 1.95  58 1.99  68 1.99
 194  0.748  0.250  0.566-  17 1.91   7 1.91  16 2.03
 195  0.749  0.250  0.651-  20 1.81  17 2.04   7 2.04
 196  0.841  0.375  0.721-  20 1.93  30 1.97  59 2.09
 197  0.159  0.375  0.721-  60 1.93  70 1.97  59 2.09
 198  1.000  0.251  0.672-  58 1.88  59 2.10  49 2.10
 199  1.000  0.250  0.756-  59 1.83  49 1.84
 200  0.848  0.625  0.286-  22 1.96  32 1.96  61 2.00
 201  0.152  0.625  0.286-  62 1.96  72 1.96  61 2.00
 202  0.000  0.500  0.244-  51 1.96  61 1.96
 203  0.000  0.500  0.328-  51 1.96  61 1.96  64 2.00
 204  0.098  0.625  0.393-  64 1.96  74 1.96  23 2.00
 205  0.902  0.625  0.393-  64 1.96  74 1.96  63 2.00
 206  0.250  0.500  0.351-  13 1.96  23 1.96  62 2.00
 207  0.750  0.500  0.435-  53 1.96  63 1.96  26 2.00
 208  0.848  0.625  0.500-  26 1.96  36 1.96  65 2.00
 209  0.152  0.625  0.500-  66 1.96  76 1.96  65 2.00
 210  0.000  0.500  0.458-  55 1.96  65 1.96  64 2.00
 211  0.000  0.500  0.542-  55 1.96  65 1.96  68 2.12
 212  0.100  0.625  0.608-  67 1.95  78 1.99  68 1.99
 213  0.900  0.625  0.608-  27 1.95  78 1.99  68 1.99
 214  0.749  0.500  0.566-  27 1.91  17 1.91  26 2.03
 215  0.749  0.500  0.651-  30 1.81  17 2.03  27 2.03
 216  0.841  0.625  0.721-  40 1.93  30 1.97  69 2.09
 217  0.159  0.625  0.721-  80 1.93  70 1.97  69 2.09
 218  0.000  0.500  0.672-  68 1.89  59 2.10  69 2.10
 219  1.000  0.500  0.756-  59 1.83  69 1.83
 220  0.848  0.875  0.286-   2 1.96  32 1.96  71 2.00
 221  0.152  0.875  0.286-  42 1.96  72 1.96  71 2.00
 222  0.000  0.750  0.244-  61 1.96  71 1.96
 223  0.000  0.750  0.328-  61 1.96  71 1.96  74 2.00
 224  0.098  0.875  0.393-  44 1.96  74 1.96  33 2.00
 225  0.902  0.875  0.393-  44 1.96  74 1.96  73 2.00
 226  0.250  0.750  0.351-  23 1.96  33 1.96  72 2.00
 227  0.750  0.750  0.435-  63 1.96  73 1.96  36 2.00
 228  0.848  0.875  0.500-   6 1.96  36 1.96  75 2.00
 229  0.152  0.875  0.500-  46 1.96  76 1.96  75 2.00
 230  0.000  0.750  0.458-  65 1.96  75 1.96  74 2.00
 231  0.000  0.750  0.542-  65 1.96  75 1.96  78 2.12
 232  0.100  0.875  0.608-  77 1.94  48 1.99  78 1.99
 233  0.900  0.875  0.608-  37 1.94  48 1.99  78 1.99
 234  0.748  0.750  0.566-  27 1.91  37 1.91  36 2.03
 235  0.749  0.750  0.651-  40 1.81  27 2.04  37 2.04
 236  0.843  0.874  0.720-  40 1.93  10 1.97  79 2.06
 237  0.157  0.875  0.720-  80 1.93  50 1.97  79 2.06
 238  0.000  0.749  0.672-  78 1.88  69 2.10  79 2.10
 239  0.000  0.750  0.756-  69 1.83  79 1.84
 

IMPORTANT INFORMATION: All symmetrisations will be switched off!
NOSYMM: (Re-)initialisation of all symmetry stuff for point group C_1.


----------------------------------------------------------------------------------------

                                     Primitive cell                                     

  volume of cell :    4788.5376

  direct lattice vectors                    reciprocal lattice vectors
    13.141424057  0.000000000  0.000000000     0.076095254  0.000000000  0.000000000
     0.000000000 11.867583772  0.000000000     0.000000000  0.084263151  0.000000000
     0.000000000  0.000000000 30.704227145     0.000000000  0.000000000  0.032568805

  length of vectors
    13.141424057 11.867583772 30.704227145     0.076095254  0.084263151  0.032568805

  position of ions in fractional coordinates (direct lattice)
     0.500000000  0.125000000  0.285999758
     0.750000000  0.000000000  0.285999758
     0.250000000  0.125000000  0.392999879
     0.500000000  0.000000000  0.392999879
     0.500000000  0.125000000  0.500000000
     0.750000000  0.000000000  0.500000000
     0.751768195  0.124854793  0.605221742
     0.500017056  0.999983252  0.614891329
     0.500177218  0.122315287  0.725495474
     0.747964637  0.999973398  0.709673121
     0.500000000  0.375000000  0.285999758
     0.750000000  0.250000000  0.285999758
     0.250000000  0.375000000  0.392999879
     0.500000000  0.250000000  0.392999879
     0.500000000  0.375000000  0.500000000
     0.750000000  0.250000000  0.500000000
     0.751438489  0.375040120  0.605253939
     0.500004791  0.247238799  0.604639541
     0.499994167  0.356778680  0.709830470
     0.751138628  0.249856235  0.709815587
     0.500000000  0.625000000  0.285999758
     0.750000000  0.500000000  0.285999758
     0.250000000  0.625000000  0.392999879
     0.500000000  0.500000000  0.392999879
     0.500000000  0.625000000  0.500000000
     0.750000000  0.500000000  0.500000000
     0.751438092  0.624958404  0.605252482
     0.499994450  0.499991096  0.607159580
     0.499989416  0.643150488  0.709817921
     0.746198910  0.499997315  0.709480116
     0.500000000  0.875000000  0.285999758
     0.750000000  0.750000000  0.285999758
     0.250000000  0.875000000  0.392999879
     0.500000000  0.750000000  0.392999879
     0.500000000  0.875000000  0.500000000
     0.750000000  0.750000000  0.500000000
     0.751779134  0.875153716  0.605216844
     0.500011989  0.752735352  0.604636147
     0.499999263  0.877492580  0.725512507
     0.751117458  0.750142564  0.709816632
     0.000000000  0.125000000  0.285999758
     0.250000000  0.000000000  0.285999758
     0.750000000  0.125000000  0.392999879
     0.000000000  0.000000000  0.392999879
     0.000000000  0.125000000  0.500000000
     0.250000000  0.000000000  0.500000000
     0.248275540  0.124866707  0.605197089
     0.000012814  0.000006136  0.610818684
     0.000023598  0.124951829  0.720580186
     0.252147174  0.000015351  0.709629416
     0.000000000  0.375000000  0.285999758
     0.250000000  0.250000000  0.285999758
     0.750000000  0.375000000  0.392999879
     0.000000000  0.250000000  0.392999879
     0.000000000  0.375000000  0.500000000
     0.250000000  0.250000000  0.500000000
     0.248563118  0.375047694  0.605255174
     0.000021088  0.250229297  0.610820125
     0.000010507  0.375298169  0.720832873
     0.248888083  0.249823542  0.709814852
     0.000000000  0.625000000  0.285999758
     0.250000000  0.500000000  0.285999758
     0.750000000  0.625000000  0.392999879
     0.000000000  0.500000000  0.392999879
     0.000000000  0.625000000  0.500000000
     0.250000000  0.500000000  0.500000000
     0.248567152  0.624953572  0.605256717
     0.999991607  0.499999137  0.610880913
     0.999996554  0.624700335  0.720834588
     0.253789402  0.499984483  0.709483762
     0.000000000  0.875000000  0.285999758
     0.250000000  0.750000000  0.285999758
     0.750000000  0.875000000  0.392999879
     0.000000000  0.750000000  0.392999879
     0.000000000  0.875000000  0.500000000
     0.250000000  0.750000000  0.500000000
     0.248270983  0.875131392  0.605200262
     0.000028633  0.749777479  0.610818563
     0.000030973  0.875046438  0.720581192
     0.248860668  0.750159413  0.709809491
     0.347508576  0.125000000  0.285999758
     0.652491424  0.125000000  0.285999758
     0.500000000  0.000000000  0.244266041
     0.500000000  0.000000000  0.327733476
     0.597508576  0.125000000  0.392999879
     0.402491424  0.125000000  0.392999879
     0.750000000  0.000000000  0.351266162
     0.250000000  0.000000000  0.434733597
     0.347508576  0.125000000  0.500000000
     0.652491424  0.125000000  0.500000000
     0.500000000  0.000000000  0.458266282
     0.500000000  0.000000000  0.541733718
     0.598398764  0.125411555  0.608327006
     0.401597008  0.125414279  0.608321462
     0.250992646  0.999993743  0.566121831
     0.252108864  0.000000464  0.650628841
     0.344449614  0.124680870  0.721823043
     0.655583854  0.124669791  0.721856049
     0.500019362  0.999984098  0.676130504
     0.500018144  0.999951590  0.761553948
     0.347508576  0.375000000  0.285999758
     0.652491424  0.375000000  0.285999758
     0.500000000  0.250000000  0.244266041
     0.500000000  0.250000000  0.327733476
     0.597508576  0.375000000  0.392999879
     0.402491424  0.375000000  0.392999879
     0.750000000  0.250000000  0.351266162
     0.250000000  0.250000000  0.434733597
     0.347508576  0.375000000  0.500000000
     0.652491424  0.375000000  0.500000000
     0.500000000  0.250000000  0.458266282
     0.500000000  0.250000000  0.541733718
     0.598024178  0.375570810  0.608747820
     0.401970584  0.375571562  0.608751233
     0.251613735  0.250167932  0.566112106
     0.250986695  0.250179475  0.650812604
     0.348164142  0.376346437  0.720703481
     0.651847957  0.376337469  0.720704059
     0.500016945  0.242988148  0.672679822
     0.500030420  0.255067093  0.755718211
     0.347508576  0.625000000  0.285999758
     0.652491424  0.625000000  0.285999758
     0.500000000  0.500000000  0.244266041
     0.500000000  0.500000000  0.327733476
     0.597508576  0.625000000  0.392999879
     0.402491424  0.625000000  0.392999879
     0.750000000  0.500000000  0.351266162
     0.250000000  0.500000000  0.434733597
     0.347508576  0.625000000  0.500000000
     0.652491424  0.625000000  0.500000000
     0.500000000  0.500000000  0.458266282
     0.500000000  0.500000000  0.541733718
     0.598024292  0.624432355  0.608752336
     0.401970362  0.624429902  0.608752005
     0.251497462  0.500004321  0.566053461
     0.251069236  0.499998415  0.650596820
     0.348161617  0.623635283  0.720711866
     0.651834191  0.623639556  0.720710235
     0.500005005  0.500002841  0.678765763
     0.347508576  0.875000000  0.285999758
     0.652491424  0.875000000  0.285999758
     0.500000000  0.750000000  0.244266041
     0.500000000  0.750000000  0.327733476
     0.597508576  0.875000000  0.392999879
     0.402491424  0.875000000  0.392999879
     0.750000000  0.750000000  0.351266162
     0.250000000  0.750000000  0.434733597
     0.347508576  0.875000000  0.500000000
     0.652491424  0.875000000  0.500000000
     0.500000000  0.750000000  0.458266282
     0.500000000  0.750000000  0.541733718
     0.598399932  0.874567465  0.608333325
     0.401591766  0.874566965  0.608329876
     0.251614067  0.749836656  0.566113181
     0.250981511  0.749811615  0.650817256
     0.344445804  0.875278292  0.721830739
     0.655573235  0.875288882  0.721843594
     0.499996443  0.757022216  0.672691225
     0.500004138  0.744813053  0.755738959
     0.847508576  0.125000000  0.285999758
     0.152491424  0.125000000  0.285999758
     0.000000000  0.000000000  0.244266041
     0.000000000  0.000000000  0.327733476
     0.097508576  0.125000000  0.392999879
     0.902491424  0.125000000  0.392999879
     0.250000000  0.000000000  0.351266162
     0.750000000  0.000000000  0.434733597
     0.847508576  0.125000000  0.500000000
     0.152491424  0.125000000  0.500000000
     0.000000000  0.000000000  0.458266282
     0.000000000  0.000000000  0.541733718
     0.100421410  0.125041236  0.607849809
     0.899588883  0.125044403  0.607852217
     0.749009095  0.000005758  0.566137084
     0.747921450  0.999994294  0.650662049
     0.842953128  0.125484958  0.720102971
     0.157048048  0.125472381  0.720081366
     0.999994439  0.000000902  0.672175825
     0.999993900  0.999995705  0.755698777
     0.847508576  0.375000000  0.285999758
     0.152491424  0.375000000  0.285999758
     0.000000000  0.250000000  0.244266041
     0.000000000  0.250000000  0.327733476
     0.097508576  0.375000000  0.392999879
     0.902491424  0.375000000  0.392999879
     0.250000000  0.250000000  0.351266162
     0.750000000  0.250000000  0.434733597
     0.847508576  0.375000000  0.500000000
     0.152491424  0.375000000  0.500000000
     0.000000000  0.250000000  0.458266282
     0.000000000  0.250000000  0.541733718
     0.100365727  0.375092530  0.607771610
     0.899641887  0.375089984  0.607771672
     0.748388966  0.250144584  0.566119308
     0.749013858  0.250185624  0.650826941
     0.841206714  0.375316553  0.720885853
     0.158799019  0.375316353  0.720888161
     0.999997538  0.250584216  0.672202740
     0.999998785  0.250189104  0.755742569
     0.847508576  0.625000000  0.285999758
     0.152491424  0.625000000  0.285999758
     0.000000000  0.500000000  0.244266041
     0.000000000  0.500000000  0.327733476
     0.097508576  0.625000000  0.392999879
     0.902491424  0.625000000  0.392999879
     0.250000000  0.500000000  0.351266162
     0.750000000  0.500000000  0.434733597
     0.847508576  0.625000000  0.500000000
     0.152491424  0.625000000  0.500000000
     0.000000000  0.500000000  0.458266282
     0.000000000  0.500000000  0.541733718
     0.100366035  0.624913563  0.607770112
     0.899645243  0.624917158  0.607771620
     0.748502536  0.499998067  0.566050407
     0.748923995  0.499998188  0.650596459
     0.841202025  0.624663826  0.720882866
     0.158791498  0.624664823  0.720884999
     0.000000845  0.500001328  0.672397228
     0.999990572  0.499997108  0.756014339
     0.847508576  0.875000000  0.285999758
     0.152491424  0.875000000  0.285999758
     0.000000000  0.750000000  0.244266041
     0.000000000  0.750000000  0.327733476
     0.097508576  0.875000000  0.392999879
     0.902491424  0.875000000  0.392999879
     0.250000000  0.750000000  0.351266162
     0.750000000  0.750000000  0.434733597
     0.847508576  0.875000000  0.500000000
     0.152491424  0.875000000  0.500000000
     0.000000000  0.750000000  0.458266282
     0.000000000  0.750000000  0.541733718
     0.100420472  0.874958188  0.607849943
     0.899588241  0.874956128  0.607851785
     0.748388980  0.749855159  0.566119218
     0.749014567  0.749808275  0.650823255
     0.842958702  0.874499916  0.720100992
     0.157050365  0.874512539  0.720087573
     0.000002150  0.749419781  0.672201355
     0.000004635  0.749813575  0.755740287

  ion indices of the primitive-cell ions
   primitive index   ion index
                 1           1
                 2           2
                 3           3
                 4           4
                 5           5
                 6           6
                 7           7
                 8           8
                 9           9
                10          10
                11          11
                12          12
                13          13
                14          14
                15          15
                16          16
                17          17
                18          18
                19          19
                20          20
                21          21
                22          22
                23          23
                24          24
                25          25
                26          26
                27          27
                28          28
                29          29
                30          30
                31          31
                32          32
                33          33
                34          34
                35          35
                36          36
                37          37
                38          38
                39          39
                40          40
                41          41
                42          42
                43          43
                44          44
                45          45
                46          46
                47          47
                48          48
                49          49
                50          50
                51          51
                52          52
                53          53
                54          54
                55          55
                56          56
                57          57
                58          58
                59          59
                60          60
                61          61
                62          62
                63          63
                64          64
                65          65
                66          66
                67          67
                68          68
                69          69
                70          70
                71          71
                72          72
                73          73
                74          74
                75          75
                76          76
                77          77
                78          78
                79          79
                80          80
                81          81
                82          82
                83          83
                84          84
                85          85
                86          86
                87          87
                88          88
                89          89
                90          90
                91          91
                92          92
                93          93
                94          94
                95          95
                96          96
                97          97
                98          98
                99          99
               100         100
               101         101
               102         102
               103         103
               104         104
               105         105
               106         106
               107         107
               108         108
               109         109
               110         110
               111         111
               112         112
               113         113
               114         114
               115         115
               116         116
               117         117
               118         118
               119         119
               120         120
               121         121
               122         122
               123         123
               124         124
               125         125
               126         126
               127         127
               128         128
               129         129
               130         130
               131         131
               132         132
               133         133
               134         134
               135         135
               136         136
               137         137
               138         138
               139         139
               140         140
               141         141
               142         142
               143         143
               144         144
               145         145
               146         146
               147         147
               148         148
               149         149
               150         150
               151         151
               152         152
               153         153
               154         154
               155         155
               156         156
               157         157
               158         158
               159         159
               160         160
               161         161
               162         162
               163         163
               164         164
               165         165
               166         166
               167         167
               168         168
               169         169
               170         170
               171         171
               172         172
               173         173
               174         174
               175         175
               176         176
               177         177
               178         178
               179         179
               180         180
               181         181
               182         182
               183         183
               184         184
               185         185
               186         186
               187         187
               188         188
               189         189
               190         190
               191         191
               192         192
               193         193
               194         194
               195         195
               196         196
               197         197
               198         198
               199         199
               200         200
               201         201
               202         202
               203         203
               204         204
               205         205
               206         206
               207         207
               208         208
               209         209
               210         210
               211         211
               212         212
               213         213
               214         214
               215         215
               216         216
               217         217
               218         218
               219         219
               220         220
               221         221
               222         222
               223         223
               224         224
               225         225
               226         226
               227         227
               228         228
               229         229
               230         230
               231         231
               232         232
               233         233
               234         234
               235         235
               236         236
               237         237
               238         238
               239         239

----------------------------------------------------------------------------------------

 
 
 KPOINTS: pymatgen v2020.8.13 with grid density = 

Automatic generation of k-mesh.
 Grid dimensions read from file:
 generate k-points for:    2    2    1

 Generating k-lattice:

  Cartesian coordinates                     Fractional coordinates (reciprocal lattice)
     0.038047627  0.000000000  0.000000000     0.500000000  0.000000000  0.000000000
     0.000000000  0.042131575  0.000000000     0.000000000  0.500000000  0.000000000
     0.000000000  0.000000000  0.032568805     0.000000000  0.000000000  1.000000000

  Length of vectors
     0.038047627  0.042131575  0.032568805

  Shift w.r.t. Gamma in fractional coordinates (k-lattice)
     0.000000000  0.000000000  0.000000000

 
 Subroutine IBZKPT returns following result:
 ===========================================
 
 Found      4 irreducible k-points:
 
 Following reciprocal coordinates:
            Coordinates               Weight
  0.000000  0.000000  0.000000      1.000000
  0.500000  0.000000  0.000000      1.000000
  0.000000  0.500000  0.000000      1.000000
  0.500000  0.500000  0.000000      1.000000
 
 Following cartesian coordinates:
            Coordinates               Weight
  0.000000  0.000000  0.000000      1.000000
  0.038048  0.000000  0.000000      1.000000
  0.000000  0.042132  0.000000      1.000000
  0.038048  0.042132  0.000000      1.000000
 


--------------------------------------------------------------------------------------------------------




 Dimension of arrays:
   k-points           NKPTS =      4   k-points in BZ     NKDIM =      4   number of bands    NBANDS=   1148
   number of dos      NEDOS =    301   number of ions     NIONS =    239
   non local maximal  LDIM  =      6   non local SUM 2l+1 LMDIM =     18
   total plane-waves  NPLWV = ******
   max r-space proj   IRMAX =   3532   max aug-charges    IRDMAX=  15889
   dimension x,y,z NGX =    96 NGY =   90 NGZ =  224
   dimension x,y,z NGXF=   192 NGYF=  180 NGZF=  448
   support grid    NGXF=   192 NGYF=  180 NGZF=  448
   ions per type =              80 159
   NGX,Y,Z   is equivalent  to a cutoff of  12.14, 12.61, 12.13 a.u.
   NGXF,Y,Z  is equivalent  to a cutoff of  24.29, 25.22, 24.26 a.u.

 SYSTEM =  TiO2-rutile                             
 POSCAR =  Ti  O                                   

 Startparameter for this run:
   NWRITE =      2    write-flag & timer
   PREC   = accura    normal or accurate (medium, high low for compatibility)
   ISTART =      0    job   : 0-new  1-cont  2-samecut
   ICHARG =      2    charge: 1-file 2-atom 10-const
   ISPIN  =      1    spin polarized calculation?
   LNONCOLLINEAR =      F non collinear calculations
   LSORBIT =      F    spin-orbit coupling
   INIWAV =      1    electr: 0-lowe 1-rand  2-diag
   LASPH  =      T    aspherical Exc in radial PAW
   METAGGA=      F    non-selfconsistent MetaGGA calc.

 Electronic Relaxation 1
   ENCUT  =  500.0 eV  36.75 Ry    6.06 a.u.  23.96 21.64 55.98*2*pi/ulx,y,z
   ENINI  =  500.0     initial cutoff
   ENAUG  =  605.4 eV  augmentation charge cutoff
   NELM   =    500;   NELMIN=  4; NELMDL=  0     # of ELM steps 
   EDIFF  = 0.1E-04   stopping-criterion for ELM
   LREAL  =      T    real-space projection
   NLSPLINE    = F    spline interpolate recip. space projectors
   LCOMPAT=      F    compatible to vasp.4.4
   GGA_COMPAT  = T    GGA compatible to vasp.4.4-vasp.4.6
   LMAXPAW     = -100 max onsite density
   LMAXMIX     =    2 max onsite mixed and CHGCAR
   VOSKOWN=      0    Vosko Wilk Nusair interpolation
   ROPT   =   -0.00025  -0.00025
 Ionic relaxation
   EDIFFG = -.1E-01   stopping-criterion for IOM
   NSW    =      0    number of steps for IOM
   NBLOCK =      1;   KBLOCK =      1    inner block; outer block 
   IBRION =     -1    ionic relax: 0-MD 1-quasi-New 2-CG
   NFREE  =      0    steps in history (QN), initial steepest desc. (CG)
   ISIF   =      2    stress and relaxation
   IWAVPR =     10    prediction:  0-non 1-charg 2-wave 3-comb
   ISYM   =      0    0-nonsym 1-usesym 2-fastsym
   LCORR  =      T    Harris-Foulkes like correction to forces

   POTIM  = 0.5000    time-step for ionic-motion
   TEIN   =    0.0    initial temperature
   TEBEG  =    0.0;   TEEND  =   0.0 temperature during run
   SMASS  =  -3.00    Nose mass-parameter (am)
   estimated Nose-frequenzy (Omega)   =  0.10E-29 period in steps = 0.13E+47 mass=  -0.395E-26a.u.
   SCALEE = 1.0000    scale energy and forces
   NPACO  =    256;   APACO  = 16.0  distance and # of slots for P.C.
   PSTRESS=    0.0 pullay stress

  Mass of Ions in am
   POMASS =  47.88 16.00
  Ionic Valenz
   ZVAL   =  12.00  6.00
  Atomic Wigner-Seitz radii
   RWIGS  =  -1.00 -1.00
  virtual crystal weights 
   VCA    =   1.00  1.00
   NELECT =    1914.0000    total number of electrons
   NUPDOWN=      -1.0000    fix difference up-down

 DOS related values:
   EMIN   =  10.00;   EMAX   =-10.00  energy-range for DOS
   EFERMI =   0.00
   ISMEAR =     0;   SIGMA  =   0.05  broadening in eV -4-tet -1-fermi 0-gaus

 Electronic relaxation 2 (details)
   IALGO  =     68    algorithm
   LDIAG  =      T    sub-space diagonalisation (order eigenvalues)
   LSUBROT=      F    optimize rotation matrix (better conditioning)
   TURBO    =      0    0=normal 1=particle mesh
   IRESTART =      0    0=no restart 2=restart with 2 vectors
   NREBOOT  =      0    no. of reboots
   NMIN     =      0    reboot dimension
   EREF     =   0.00    reference energy to select bands
   IMIX   =      4    mixing-type and parameters
     AMIX     =   0.40;   BMIX     =  1.00
     AMIX_MAG =   1.60;   BMIX_MAG =  1.00
     AMIN     =   0.10
     WC   =   100.;   INIMIX=   1;  MIXPRE=   1;  MAXMIX= -45

 Intra band minimization:
   WEIMIN = 0.0000     energy-eigenvalue tresh-hold
   EBREAK =  0.22E-08  absolut break condition
   DEPER  =   0.30     relativ break condition  

   TIME   =   0.40     timestep for ELM

  volume/ion in A,a.u.               =      20.04       135.21
  Fermi-wavevector in a.u.,A,eV,Ry     =   1.205927  2.278872 19.786422  1.454261
  Thomas-Fermi vector in A             =   2.341610
 
 Write flags
   LWAVE        =      F    write WAVECAR
   LDOWNSAMPLE  =      F    k-point downsampling of WAVECAR
   LCHARG       =      F    write CHGCAR
   LVTOT        =      F    write LOCPOT, total local potential
   LVHAR        =      F    write LOCPOT, Hartree potential only
   LELF         =      F    write electronic localiz. function (ELF)
   LORBIT       =     11    0 simple, 1 ext, 2 COOP (PROOUT), +10 PAW based schemes


 Dipole corrections
   LMONO  =      F    monopole corrections only (constant potential shift)
   LDIPOL =      F    correct potential (dipole corrections)
   IDIPOL =      0    1-x, 2-y, 3-z, 4-all directions 
   EPSILON=  1.0000000 bulk dielectric constant

 Exchange correlation treatment:
   GGA     =    --    GGA type
   LEXCH   =     8    internal setting for exchange type
   VOSKOWN=      0    Vosko Wilk Nusair interpolation
   LHFCALC =     F    Hartree Fock is set to
   LHFONE  =     F    Hartree Fock one center treatment
   AEXX    =    0.0000 exact exchange contribution

 Linear response parameters
   LEPSILON=     F    determine dielectric tensor
   LRPA    =     F    only Hartree local field effects (RPA)
   LNABLA  =     F    use nabla operator in PAW spheres
   LVEL    =     F    velocity operator in full k-point grid
   LINTERFAST=   F  fast interpolation
   KINTER  =     0    interpolate to denser k-point grid
   CSHIFT  =0.1000    complex shift for real part using Kramers Kronig
   OMEGAMAX=  -1.0    maximum frequency
   DEG_THRESHOLD= 0.2000000E-02 threshold for treating states as degnerate
   RTIME   =   -0.100 relaxation time in fs
  (WPLASMAI=    0.000 imaginary part of plasma frequency in eV, 0.658/RTIME)
   DFIELD  = 0.0000000 0.0000000 0.0000000 field for delta impulse in time
 
 Orbital magnetization related:
   ORBITALMAG=     F  switch on orbital magnetization
   LCHIMAG   =     F  perturbation theory with respect to B field
   DQ        =  0.001000  dq finite difference perturbation B field
   LLRAUG    =     F  two centre corrections for induced B field



--------------------------------------------------------------------------------------------------------


 Static calculation
 charge density and potential will be updated during run
 non-spin polarized calculation
 RMM-DIIS sequential band-by-band and
  variant of blocked Davidson during initial phase
 perform sub-space diagonalisation
    before iterative eigenvector-optimisation
 modified Broyden-mixing scheme, WC =      100.0
 initial mixing is a Kerker type mixing with AMIX =  0.4000 and BMIX =      1.0000
 Hartree-type preconditioning will be used
 using additional bands          191
 real space projection scheme for non local part
 use partial core corrections
 calculate Harris-corrections to forces 
   (improved forces if not selfconsistent)
 use gradient corrections 
 use of overlap-Matrix (Vanderbilt PP)
 Gauss-broadening in eV      SIGMA  =   0.05


--------------------------------------------------------------------------------------------------------


  energy-cutoff  :      500.00
  volume of cell :     4788.54
      direct lattice vectors                 reciprocal lattice vectors
    13.141424057  0.000000000  0.000000000     0.076095254  0.000000000  0.000000000
     0.000000000 11.867583772  0.000000000     0.000000000  0.084263151  0.000000000
     0.000000000  0.000000000 30.704227145     0.000000000  0.000000000  0.032568805

  length of vectors
    13.141424057 11.867583772 30.704227145     0.076095254  0.084263151  0.032568805


 
 k-points in units of 2pi/SCALE and weight: pymatgen v2020.8.13 with grid density = 
   0.00000000  0.00000000  0.00000000       0.250
   0.03804763  0.00000000  0.00000000       0.250
   0.00000000  0.04213158  0.00000000       0.250
   0.03804763  0.04213158  0.00000000       0.250
 
 k-points in reciprocal lattice and weights: pymatgen v2020.8.13 with grid density = 
   0.00000000  0.00000000  0.00000000       0.250
   0.50000000  0.00000000  0.00000000       0.250
   0.00000000  0.50000000  0.00000000       0.250
   0.50000000  0.50000000  0.00000000       0.250
 
 position of ions in fractional coordinates (direct lattice) 
   0.50000000  0.12500000  0.28599976
   0.75000000  0.00000000  0.28599976
   0.25000000  0.12500000  0.39299988
   0.50000000  0.00000000  0.39299988
   0.50000000  0.12500000  0.50000000
   0.75000000  0.00000000  0.50000000
   0.75176819  0.12485479  0.60522174
   0.50001706  0.99998325  0.61489133
   0.50017722  0.12231529  0.72549547
   0.74796464  0.99997340  0.70967312
   0.50000000  0.37500000  0.28599976
   0.75000000  0.25000000  0.28599976
   0.25000000  0.37500000  0.39299988
   0.50000000  0.25000000  0.39299988
   0.50000000  0.37500000  0.50000000
   0.75000000  0.25000000  0.50000000
   0.75143849  0.37504012  0.60525394
   0.50000479  0.24723880  0.60463954
   0.49999417  0.35677868  0.70983047
   0.75113863  0.24985624  0.70981559
   0.50000000  0.62500000  0.28599976
   0.75000000  0.50000000  0.28599976
   0.25000000  0.62500000  0.39299988
   0.50000000  0.50000000  0.39299988
   0.50000000  0.62500000  0.50000000
   0.75000000  0.50000000  0.50000000
   0.75143809  0.62495840  0.60525248
   0.49999445  0.49999110  0.60715958
   0.49998942  0.64315049  0.70981792
   0.74619891  0.49999732  0.70948012
   0.50000000  0.87500000  0.28599976
   0.75000000  0.75000000  0.28599976
   0.25000000  0.87500000  0.39299988
   0.50000000  0.75000000  0.39299988
   0.50000000  0.87500000  0.50000000
   0.75000000  0.75000000  0.50000000
   0.75177913  0.87515372  0.60521684
   0.50001199  0.75273535  0.60463615
   0.49999926  0.87749258  0.72551251
   0.75111746  0.75014256  0.70981663
   0.00000000  0.12500000  0.28599976
   0.25000000  0.00000000  0.28599976
   0.75000000  0.12500000  0.39299988
   0.00000000  0.00000000  0.39299988
   0.00000000  0.12500000  0.50000000
   0.25000000  0.00000000  0.50000000
   0.24827554  0.12486671  0.60519709
   0.00001281  0.00000614  0.61081868
   0.00002360  0.12495183  0.72058019
   0.25214717  0.00001535  0.70962942
   0.00000000  0.37500000  0.28599976
   0.25000000  0.25000000  0.28599976
   0.75000000  0.37500000  0.39299988
   0.00000000  0.25000000  0.39299988
   0.00000000  0.37500000  0.50000000
   0.25000000  0.25000000  0.50000000
   0.24856312  0.37504769  0.60525517
   0.00002109  0.25022930  0.61082013
   0.00001051  0.37529817  0.72083287
   0.24888808  0.24982354  0.70981485
   0.00000000  0.62500000  0.28599976
   0.25000000  0.50000000  0.28599976
   0.75000000  0.62500000  0.39299988
   0.00000000  0.50000000  0.39299988
   0.00000000  0.62500000  0.50000000
   0.25000000  0.50000000  0.50000000
   0.24856715  0.62495357  0.60525672
   0.99999161  0.49999914  0.61088091
   0.99999655  0.62470034  0.72083459
   0.25378940  0.49998448  0.70948376
   0.00000000  0.87500000  0.28599976
   0.25000000  0.75000000  0.28599976
   0.75000000  0.87500000  0.39299988
   0.00000000  0.75000000  0.39299988
   0.00000000  0.87500000  0.50000000
   0.25000000  0.75000000  0.50000000
   0.24827098  0.87513139  0.60520026
   0.00002863  0.74977748  0.61081856
   0.00003097  0.87504644  0.72058119
   0.24886067  0.75015941  0.70980949
   0.34750858  0.12500000  0.28599976
   0.65249142  0.12500000  0.28599976
   0.50000000  0.00000000  0.24426604
   0.50000000  0.00000000  0.32773348
   0.59750858  0.12500000  0.39299988
   0.40249142  0.12500000  0.39299988
   0.75000000  0.00000000  0.35126616
   0.25000000  0.00000000  0.43473360
   0.34750858  0.12500000  0.50000000
   0.65249142  0.12500000  0.50000000
   0.50000000  0.00000000  0.45826628
   0.50000000  0.00000000  0.54173372
   0.59839876  0.12541156  0.60832701
   0.40159701  0.12541428  0.60832146
   0.25099265  0.99999374  0.56612183
   0.25210886  0.00000046  0.65062884
   0.34444961  0.12468087  0.72182304
   0.65558385  0.12466979  0.72185605
   0.50001936  0.99998410  0.67613050
   0.50001814  0.99995159  0.76155395
   0.34750858  0.37500000  0.28599976
   0.65249142  0.37500000  0.28599976
   0.50000000  0.25000000  0.24426604
   0.50000000  0.25000000  0.32773348
   0.59750858  0.37500000  0.39299988
   0.40249142  0.37500000  0.39299988
   0.75000000  0.25000000  0.35126616
   0.25000000  0.25000000  0.43473360
   0.34750858  0.37500000  0.50000000
   0.65249142  0.37500000  0.50000000
   0.50000000  0.25000000  0.45826628
   0.50000000  0.25000000  0.54173372
   0.59802418  0.37557081  0.60874782
   0.40197058  0.37557156  0.60875123
   0.25161374  0.25016793  0.56611211
   0.25098669  0.25017948  0.65081260
   0.34816414  0.37634644  0.72070348
   0.65184796  0.37633747  0.72070406
   0.50001695  0.24298815  0.67267982
   0.50003042  0.25506709  0.75571821
   0.34750858  0.62500000  0.28599976
   0.65249142  0.62500000  0.28599976
   0.50000000  0.50000000  0.24426604
   0.50000000  0.50000000  0.32773348
   0.59750858  0.62500000  0.39299988
   0.40249142  0.62500000  0.39299988
   0.75000000  0.50000000  0.35126616
   0.25000000  0.50000000  0.43473360
   0.34750858  0.62500000  0.50000000
   0.65249142  0.62500000  0.50000000
   0.50000000  0.50000000  0.45826628
   0.50000000  0.50000000  0.54173372
   0.59802429  0.62443235  0.60875234
   0.40197036  0.62442990  0.60875201
   0.25149746  0.50000432  0.56605346
   0.25106924  0.49999841  0.65059682
   0.34816162  0.62363528  0.72071187
   0.65183419  0.62363956  0.72071024
   0.50000500  0.50000284  0.67876576
   0.34750858  0.87500000  0.28599976
   0.65249142  0.87500000  0.28599976
   0.50000000  0.75000000  0.24426604
   0.50000000  0.75000000  0.32773348
   0.59750858  0.87500000  0.39299988
   0.40249142  0.87500000  0.39299988
   0.75000000  0.75000000  0.35126616
   0.25000000  0.75000000  0.43473360
   0.34750858  0.87500000  0.50000000
   0.65249142  0.87500000  0.50000000
   0.50000000  0.75000000  0.45826628
   0.50000000  0.75000000  0.54173372
   0.59839993  0.87456747  0.60833333
   0.40159177  0.87456697  0.60832988
   0.25161407  0.74983666  0.56611318
   0.25098151  0.74981161  0.65081726
   0.34444580  0.87527829  0.72183074
   0.65557323  0.87528888  0.72184359
   0.49999644  0.75702222  0.67269123
   0.50000414  0.74481305  0.75573896
   0.84750858  0.12500000  0.28599976
   0.15249142  0.12500000  0.28599976
   0.00000000  0.00000000  0.24426604
   0.00000000  0.00000000  0.32773348
   0.09750858  0.12500000  0.39299988
   0.90249142  0.12500000  0.39299988
   0.25000000  0.00000000  0.35126616
   0.75000000  0.00000000  0.43473360
   0.84750858  0.12500000  0.50000000
   0.15249142  0.12500000  0.50000000
   0.00000000  0.00000000  0.45826628
   0.00000000  0.00000000  0.54173372
   0.10042141  0.12504124  0.60784981
   0.89958888  0.12504440  0.60785222
   0.74900909  0.00000576  0.56613708
   0.74792145  0.99999429  0.65066205
   0.84295313  0.12548496  0.72010297
   0.15704805  0.12547238  0.72008137
   0.99999444  0.00000090  0.67217583
   0.99999390  0.99999571  0.75569878
   0.84750858  0.37500000  0.28599976
   0.15249142  0.37500000  0.28599976
   0.00000000  0.25000000  0.24426604
   0.00000000  0.25000000  0.32773348
   0.09750858  0.37500000  0.39299988
   0.90249142  0.37500000  0.39299988
   0.25000000  0.25000000  0.35126616
   0.75000000  0.25000000  0.43473360
   0.84750858  0.37500000  0.50000000
   0.15249142  0.37500000  0.50000000
   0.00000000  0.25000000  0.45826628
   0.00000000  0.25000000  0.54173372
   0.10036573  0.37509253  0.60777161
   0.89964189  0.37508998  0.60777167
   0.74838897  0.25014458  0.56611931
   0.74901386  0.25018562  0.65082694
   0.84120671  0.37531655  0.72088585
   0.15879902  0.37531635  0.72088816
   0.99999754  0.25058422  0.67220274
   0.99999879  0.25018910  0.75574257
   0.84750858  0.62500000  0.28599976
   0.15249142  0.62500000  0.28599976
   0.00000000  0.50000000  0.24426604
   0.00000000  0.50000000  0.32773348
   0.09750858  0.62500000  0.39299988
   0.90249142  0.62500000  0.39299988
   0.25000000  0.50000000  0.35126616
   0.75000000  0.50000000  0.43473360
   0.84750858  0.62500000  0.50000000
   0.15249142  0.62500000  0.50000000
   0.00000000  0.50000000  0.45826628
   0.00000000  0.50000000  0.54173372
   0.10036603  0.62491356  0.60777011
   0.89964524  0.62491716  0.60777162
   0.74850254  0.49999807  0.56605041
   0.74892399  0.49999819  0.65059646
   0.84120203  0.62466383  0.72088287
   0.15879150  0.62466482  0.72088500
   0.00000084  0.50000133  0.67239723
   0.99999057  0.49999711  0.75601434
   0.84750858  0.87500000  0.28599976
   0.15249142  0.87500000  0.28599976
   0.00000000  0.75000000  0.24426604
   0.00000000  0.75000000  0.32773348
   0.09750858  0.87500000  0.39299988
   0.90249142  0.87500000  0.39299988
   0.25000000  0.75000000  0.35126616
   0.75000000  0.75000000  0.43473360
   0.84750858  0.87500000  0.50000000
   0.15249142  0.87500000  0.50000000
   0.00000000  0.75000000  0.45826628
   0.00000000  0.75000000  0.54173372
   0.10042047  0.87495819  0.60784994
   0.89958824  0.87495613  0.60785178
   0.74838898  0.74985516  0.56611922
   0.74901457  0.74980827  0.65082326
   0.84295870  0.87449992  0.72010099
   0.15705037  0.87451254  0.72008757
   0.00000215  0.74941978  0.67220136
   0.00000464  0.74981357  0.75574029
 
 position of ions in cartesian coordinates  (Angst):
   6.57071203  1.48344797  8.78140154
   9.85606804  0.00000000  8.78140154
   3.28535601  1.48344797 12.06675756
   6.57071203  0.00000000 12.06675756
   6.57071203  1.48344797 15.35211357
   9.85606804  0.00000000 15.35211357
   9.87930464  1.48172471 18.58286583
   6.57093617 11.86738501 18.87976302
   6.57304093  1.45158692 22.27577784
   9.82932047 11.86726807 21.78996471
   6.57071203  4.45034391  8.78140154
   9.85606804  2.96689594  8.78140154
   3.28535601  4.45034391 12.06675756
   6.57071203  2.96689594 12.06675756
   6.57071203  4.45034391 15.35211357
   9.85606804  2.96689594 15.35211357
   9.87497184  4.45082004 18.58385444
   6.57077499  2.93412716 18.56498979
   6.57063537  4.23410087 21.79479598
   9.87103124  2.96518980 21.79433901
   6.57071203  7.41723986  8.78140154
   9.85606804  5.93379189  8.78140154
   3.28535601  7.41723986 12.06675756
   6.57071203  5.93379189 12.06675756
   6.57071203  7.41723986 15.35211357
   9.85606804  5.93379189 15.35211357
   9.87496662  7.41674621 18.58380967
   6.57063909  5.93368621 18.64236565
   6.57057294  7.63264229 21.79441068
   9.80611630  5.93376002 21.78403864
   6.57071203 10.38413580  8.78140154
   9.85606804  8.90068783  8.78140154
   3.28535601 10.38413580 12.06675756
   6.57071203  8.90068783 12.06675756
   6.57071203 10.38413580 15.35211357
   9.85606804  8.90068783 15.35211357
   9.87944840 10.38596004 18.58271544
   6.57086958  8.93314985 18.56488561
   6.57070235 10.41371671 22.27630081
   9.87075304  8.90237972 21.79437110
   0.00000000  1.48344797  8.78140154
   3.28535601  0.00000000  8.78140154
   9.85606804  1.48344797 12.06675756
   0.00000000  0.00000000 12.06675756
   0.00000000  1.48344797 15.35211357
   3.28535601  0.00000000 15.35211357
   3.26269415  1.48186611 18.58210890
   0.00016839  0.00007282 18.75471561
   0.00031011  1.48287630 22.12485771
   3.31357294  0.00018218 21.78862279
   0.00000000  4.45034391  8.78140154
   3.28535601  2.96689594  8.78140154
   9.85606804  4.45034391 12.06675756
   0.00000000  2.96689594 12.06675756
   0.00000000  4.45034391 15.35211357
   3.28535601  2.96689594 15.35211357
   3.26647334  4.45090992 18.58389235
   0.00027713  2.96961714 18.75475988
   0.00013807  4.45388246 22.13261626
   3.27074384  2.96480181 21.79431644
   0.00000000  7.41723986  8.78140154
   3.28535601  5.93379189  8.78140154
   9.85606804  7.41723986 12.06675756
   0.00000000  5.93379189 12.06675756
   0.00000000  7.41723986 15.35211357
   3.28535601  5.93379189 15.35211357
   3.26652635  7.41668887 18.58393972
  13.14131376  5.93378165 18.75662630
  13.14137877  7.41368356 22.13266893
   3.33515415  5.93360773 21.78415059
   0.00000000 10.38413580  8.78140154
   3.28535601  8.90068783  8.78140154
   9.85606804 10.38413580 12.06675756
   0.00000000  8.90068783 12.06675756
   0.00000000 10.38413580 15.35211357
   3.28535601  8.90068783 15.35211357
   3.26263427 10.38569511 18.58220631
   0.00037627  8.89804704 18.75471190
   0.00040703 10.38468690 22.12488858
   3.27038357  8.90257968 21.79415185
   4.56675756  1.48344797  8.78140154
   8.57466650  1.48344797  8.78140154
   6.57071203  0.00000000  7.50000000
   6.57071203  0.00000000 10.06280309
   7.85211357  1.48344797 12.06675756
   5.28931048  1.48344797 12.06675756
   9.85606804  0.00000000 10.78535601
   3.28535601  0.00000000 13.34815910
   4.56675756  1.48344797 15.35211357
   8.57466650  1.48344797 15.35211357
   6.57071203  0.00000000 14.07071203
   6.57071203  0.00000000 16.63351512
   7.86381191  1.48833214 18.67821057
   5.27755658  1.48836447 18.67804033
   3.29840079 11.86750952 17.38233328
   3.31306949  0.00000551 19.97705571
   4.52655844  1.47966067 22.16301867
   8.61530543  1.47952919 22.16403209
   6.57096647 11.86739506 20.76006456
   6.57095046 11.86700926 23.38292540
   4.56675756  4.45034391  8.78140154
   8.57466650  4.45034391  8.78140154
   6.57071203  2.96689594  7.50000000
   6.57071203  2.96689594 10.06280309
   7.85211357  4.45034391 12.06675756
   5.28931048  4.45034391 12.06675756
   9.85606804  2.96689594 10.78535601
   3.28535601  2.96689594 13.34815910
   4.56675756  4.45034391 15.35211357
   8.57466650  4.45034391 15.35211357
   6.57071203  2.96689594 14.07071203
   6.57071203  2.96689594 16.63351512
   7.85888932  4.45711805 18.69113133
   5.28246590  4.45712698 18.69123614
   3.30656279  2.96888889 17.38203468
   3.29832259  2.96902588 19.98269802
   4.57537264  4.46632287 22.12864339
   8.56621043  4.46621644 22.12866113
   6.57093471  2.88368220 20.65411405
   6.57111179  3.02703009 23.20374362
   4.56675756  7.41723986  8.78140154
   8.57466650  7.41723986  8.78140154
   6.57071203  5.93379189  7.50000000
   6.57071203  5.93379189 10.06280309
   7.85211357  7.41723986 12.06675756
   5.28931048  7.41723986 12.06675756
   9.85606804  5.93379189 10.78535601
   3.28535601  5.93379189 13.34815910
   4.56675756  7.41723986 15.35211357
   8.57466650  7.41723986 15.35211357
   6.57071203  5.93379189 14.07071203
   6.57071203  5.93379189 16.63351512
   7.85889081  7.41050328 18.69126999
   5.28246298  7.41047418 18.69125985
   3.30503480  5.93384317 17.38023405
   3.29940730  5.93377307 19.97607255
   4.57533944  7.40104397 22.12890085
   8.56602952  7.40109467 22.12885077
   6.57077780  5.93382561 20.84097816
   4.56675756 10.38413580  8.78140154
   8.57466650 10.38413580  8.78140154
   6.57071203  8.90068783  7.50000000
   6.57071203  8.90068783 10.06280309
   7.85211357 10.38413580 12.06675756
   5.28931048 10.38413580 12.06675756
   9.85606804  8.90068783 10.78535601
   3.28535601  8.90068783 13.34815910
   4.56675756 10.38413580 15.35211357
   8.57466650 10.38413580 15.35211357
   6.57071203  8.90068783 14.07071203
   6.57071203  8.90068783 16.63351512
   7.86382726 10.37900266 18.67840459
   5.27748769 10.37899673 18.67829869
   3.30656715  8.89874933 17.38206771
   3.29825447  8.89845215 19.98284085
   4.52650838 10.38743846 22.16325497
   8.61516588 10.38756413 22.16364966
   6.57066528  8.98402456 20.65446418
   6.57076641  8.83913130 23.20438067
  11.13746959  1.48344797  8.78140154
   2.00395447  1.48344797  8.78140154
   0.00000000  0.00000000  7.50000000
   0.00000000  0.00000000 10.06280309
   1.28140154  1.48344797 12.06675756
  11.86002251  1.48344797 12.06675756
   3.28535601  0.00000000 10.78535601
   9.85606804  0.00000000 13.34815910
  11.13746959  1.48344797 15.35211357
   2.00395447  1.48344797 15.35211357
   0.00000000  0.00000000 14.07071203
   0.00000000  0.00000000 16.63351512
   1.31968033  1.48393734 18.66355860
  11.82187899  1.48397493 18.66363256
   9.84304613  0.00006834 17.38280161
   9.82875293 11.86751605 19.97807536
  11.07760452  1.48920325 22.11020518
   2.06383500  1.48905400 22.10954184
  13.14135098  0.00001071 20.63863922
  13.14134390 11.86753280 23.20314689
  11.13746959  4.45034391  8.78140154
   2.00395447  4.45034391  8.78140154
   0.00000000  2.96689594  7.50000000
   0.00000000  2.96689594 10.06280309
   1.28140154  4.45034391 12.06675756
  11.86002251  4.45034391 12.06675756
   3.28535601  2.96689594 10.78535601
   9.85606804  2.96689594 13.34815910
  11.13746959  4.45034391 15.35211357
   2.00395447  4.45034391 15.35211357
   0.00000000  2.96689594 14.07071203
   0.00000000  2.96689594 16.63351512
   1.31894858  4.45144202 18.66115757
  11.82257554  4.45141180 18.66115946
   9.83489676  2.96861181 17.38225584
   9.84310873  2.96909885 19.98313824
  11.05465414  4.45410063 22.13424297
   2.08684525  4.45409826 22.13431385
  13.14139170  2.97382918 20.63946561
  13.14140810  2.96914015 23.20449150
  11.13746959  7.41723986  8.78140154
   2.00395447  7.41723986  8.78140154
   0.00000000  5.93379189  7.50000000
   0.00000000  5.93379189 10.06280309
   1.28140154  7.41723986 12.06675756
  11.86002251  7.41723986 12.06675756
   3.28535601  5.93379189 10.78535601
   9.85606804  5.93379189 13.34815910
  11.13746959  7.41723986 15.35211357
   2.00395447  7.41723986 15.35211357
   0.00000000  5.93379189 14.07071203
   0.00000000  5.93379189 16.63351512
   1.31895263  7.41621406 18.66111158
  11.82261963  7.41625672 18.66115786
   9.83638923  5.93376894 17.38014026
   9.84192780  5.93377038 19.97606145
  11.05459253  7.41325028 22.13415126
   2.08674641  7.41326212 22.13421675
   0.00001110  5.93380764 20.64543723
  13.14130017  5.93375757 23.21283598
  11.13746959 10.38413580  8.78140154
   2.00395447 10.38413580  8.78140154
   0.00000000  8.90068783  7.50000000
   0.00000000  8.90068783 10.06280309
   1.28140154 10.38413580 12.06675756
  11.86002251 10.38413580 12.06675756
   3.28535601  8.90068783 10.78535601
   9.85606804  8.90068783 13.34815910
  11.13746959 10.38413580 15.35211357
   2.00395447 10.38413580 15.35211357
   0.00000000  8.90068783 14.07071203
   0.00000000  8.90068783 16.63351512
   1.31966800 10.38363959 18.66356272
  11.82187056 10.38361514 18.66361928
   9.83489695  8.89896892 17.38225305
   9.84311805  8.89841251 19.98302506
  11.07767777 10.37820101 22.11014443
   2.06386545 10.37835082 22.10973241
   0.00002826  8.89380203 20.63942309
   0.00006091  8.89847541 23.20442143
 


--------------------------------------------------------------------------------------------------------


 k-point   1 :   0.0000 0.0000 0.0000  plane waves:  121519
 k-point   2 :   0.5000 0.0000 0.0000  plane waves:  121592
 k-point   3 :   0.0000 0.5000 0.0000  plane waves:  121548
 k-point   4 :   0.5000 0.5000 0.0000  plane waves:  121560

 maximum and minimum number of plane-waves per node :      6118     6031

 maximum number of plane-waves:    121592
 maximum index in each direction: 
   IXMAX=   23   IYMAX=   21   IZMAX=   55
   IXMIN=  -24   IYMIN=  -22   IZMIN=  -55


 real space projection operators:
  total allocation   :      59484.30 KBytes
  max/ min on nodes  :       3483.70       1711.06


 parallel 3D FFT for wavefunctions:
    minimum data exchange during FFTs selected (reduces bandwidth)
 parallel 3D FFT for charge:
    minimum data exchange during FFTs selected (reduces bandwidth)


 total amount of memory used by VASP MPI-rank0   190701. kBytes
=======================================================================

   base      :      30000. kBytes
   nonlr-proj:      17827. kBytes
   fftplans  :      10811. kBytes
   grid      :      17629. kBytes
   one-center:        186. kBytes
   wavefun   :     114248. kBytes
 
     INWAV:  cpu time    0.0000: real time    0.0000
 Broyden mixing: mesh for mixing (old mesh)
   NGX = 47   NGY = 43   NGZ =111
  (NGX  =192   NGY  =180   NGZ  =448)
  gives a total of 224331 points

 initial charge density was supplied:
 charge density of overlapping atoms calculated
 number of electron    1914.0000000 magnetization 
 keeping initial charge density in first step


--------------------------------------------------------------------------------------------------------


 Maximum index for non-local projection operator          281
 Maximum index for augmentation-charges          757 (set IRDMAX)


--------------------------------------------------------------------------------------------------------


 First call to EWALD:  gamma=   0.105
 Maximum number of real-space cells 3x 4x 2
 Maximum number of reciprocal cells 2x 2x 5

    FEWALD:  cpu time    0.0137: real time    0.0137


--------------------------------------- Iteration      1(   1)  ---------------------------------------


    POTLOK:  cpu time    0.1571: real time    0.1599
    SETDIJ:  cpu time    0.2157: real time    0.2196
     EDDAV:  cpu time   55.8474: real time   56.0120
       DOS:  cpu time    0.0040: real time    0.0053
    --------------------------------------------
      LOOP:  cpu time   56.2243: real time   56.3967

 eigenvalue-minimisations  :  9288
 total energy-change (2. order) : 0.3021659E+05  (-0.9372289E+05)
 number of electron    1914.0000000 magnetization 
 augmentation part     1914.0000000 magnetization 

 Free energy of the ion-electron system (eV)
  ---------------------------------------------------
  alpha Z        PSCENC =      4121.09736911
  Ewald energy   TEWEN  =   1058509.24383318
  -Hartree energ DENC   =  -1235945.44613393
  -exchange      EXHF   =         0.00000000
  -V(xc)+E(xc)   XCENC  =      9348.46018609
  PAW double counting   =    156266.58208487  -154985.77964017
[...]
      6.57071      8.90069     16.63352         0.000104     -0.178030      0.564190
      7.86383     10.37900     18.67840        -0.049966      0.011299      0.000284
      5.27749     10.37900     18.67830         0.051306      0.011056     -0.000230
      3.30657      8.89875     17.38207         0.000445      0.002364     -0.024317
      3.29825      8.89845     19.98284        -0.000855      0.003399     -0.031413
      4.52651     10.38744     22.16325         0.006881     -0.000983      0.003407
      8.61517     10.38756     22.16365        -0.008646     -0.002097      0.004343
      6.57067      8.98402     20.65446         0.000198      0.000215     -0.012885
      6.57077      8.83913     23.20438         0.000228     -0.013333     -0.006122
     11.13747      1.48345      8.78140        -1.704573      0.006505     -0.804365
      2.00395      1.48345      8.78140         1.704539      0.006504     -0.804344
      0.00000      0.00000      7.50000        -0.000038     -0.000019      2.029116
      0.00000      0.00000     10.06280        -0.000028     -0.000002      1.745913
      1.28140      1.48345     12.06676         0.370186      0.008554      0.099887
     11.86002      1.48345     12.06676        -0.370220      0.008550      0.099914
      3.28536      0.00000     10.78536         0.011105      0.000124     -1.195988
      9.85607      0.00000     13.34816        -0.023001      0.000026      0.177133
     11.13747      1.48345     15.35211        -0.446392      0.024211      0.178858
      2.00395      1.48345     15.35211         0.446121      0.024698      0.178876
      0.00000      0.00000     14.07071        -0.000030      0.000022      0.133523
      0.00000      0.00000     16.63352        -0.000067      0.000007      0.194010
      1.31968      1.48394     18.66356        -0.063818     -0.001229      0.001683
     11.82188      1.48397     18.66363         0.063533     -0.001403      0.002180
      9.84305      0.00007     17.38280         0.000738     -0.000281     -0.029476
      9.82875     11.86752     19.97808         0.003073      0.000578     -0.025561
     11.07760      1.48920     22.11021         0.003774     -0.016198     -0.010842
      2.06383      1.48905     22.10954        -0.003195     -0.016503     -0.011140
     13.14135      0.00001     20.63864         0.000106      0.000172     -0.014616
     13.14134     11.86753     23.20315         0.000549      0.001231     -0.015911
     11.13747      4.45034      8.78140        -1.704768     -0.005453     -0.804425
      2.00395      4.45034      8.78140         1.704747     -0.005464     -0.804417
      0.00000      2.96690      7.50000        -0.000042      0.000161      2.030901
      0.00000      2.96690     10.06280        -0.000025      0.000369      1.743414
      1.28140      4.45034     12.06676         0.373683     -0.006003      0.100028
     11.86002      4.45034     12.06676        -0.373781     -0.006003      0.100013
      3.28536      2.96690     10.78536         0.011099      0.004295     -1.192744
      9.85607      2.96690     13.34816        -0.023583      0.011018      0.174022
     11.13747      4.45034     15.35211        -0.462032      0.011654      0.172185
      2.00395      4.45034     15.35211         0.461899      0.011881      0.172097
      0.00000      2.96690     14.07071        -0.000039     -0.000130      0.132169
      0.00000      2.96690     16.63352         0.000114     -0.000294      0.183008
      1.31895      4.45144     18.66116        -0.069134     -0.000505     -0.001007
     11.82258      4.45141     18.66116         0.067999     -0.000516     -0.000544
      9.83490      2.96861     17.38226        -0.000401     -0.002346     -0.023403
      9.84311      2.96910     19.98314         0.000841     -0.003429     -0.032848
     11.05465      4.45410     22.13424         0.003231     -0.003472      0.001585
      2.08685      4.45410     22.13431        -0.003923     -0.003860      0.001951
     13.14139      2.97383     20.63947         0.000151      0.002098     -0.014206
     13.14141      2.96914     23.20449         0.000208     -0.002231     -0.020590
     11.13747      7.41724      8.78140        -1.704802      0.005565     -0.804456
      2.00395      7.41724      8.78140         1.704747      0.005567     -0.804451
      0.00000      5.93379      7.50000        -0.000033      0.000029      2.029110
      0.00000      5.93379     10.06280        -0.000034      0.000018      1.746438
      1.28140      7.41724     12.06676         0.373708      0.006018      0.100028
     11.86002      7.41724     12.06676        -0.373791      0.006018      0.100025
      3.28536      5.93379     10.78536         0.011667      0.000051     -1.194188
      9.85607      5.93379     13.34816        -0.033643     -0.000016      0.196312
     11.13747      7.41724     15.35211        -0.462071     -0.011632      0.172182
      2.00395      7.41724     15.35211         0.461874     -0.011804      0.172052
      0.00000      5.93379     14.07071        -0.000051      0.000012      0.130366
      0.00000      5.93379     16.63352         0.000008     -0.000056      0.178917
      1.31895      7.41621     18.66111        -0.068652     -0.000447     -0.000825
     11.82262      7.41626     18.66116         0.067300     -0.000556     -0.000557
      9.83639      5.93377     17.38014         0.002906      0.000141     -0.023130
      9.84193      5.93377     19.97606         0.004008     -0.000067     -0.027305
     11.05459      7.41325     22.13415         0.003804      0.003789      0.002651
      2.08675      7.41326     22.13422        -0.002826      0.004073      0.001837
      0.00001      5.93381     20.64544         0.000208     -0.000324     -0.008449
     13.14130      5.93376     23.21284         0.000419      0.000133     -0.018929
     11.13747     10.38414      8.78140        -1.704587     -0.006541     -0.804394
      2.00395     10.38414      8.78140         1.704564     -0.006575     -0.804386
      0.00000      8.90069      7.50000        -0.000031     -0.000159      2.030894
      0.00000      8.90069     10.06280        -0.000034     -0.000356      1.743404
      1.28140     10.38414     12.06676         0.370104     -0.008530      0.099867
     11.86002     10.38414     12.06676        -0.370223     -0.008532      0.099903
      3.28536      8.90069     10.78536         0.011115     -0.004413     -1.193043
      9.85607      8.90069     13.34816        -0.023605     -0.010990      0.174041
     11.13747     10.38414     15.35211        -0.446460     -0.024195      0.178973
      2.00395     10.38414     15.35211         0.446047     -0.024685      0.178734
      0.00000      8.90069     14.07071        -0.000064      0.000138      0.132162
      0.00000      8.90069     16.63352         0.000133      0.000497      0.182559
      1.31967     10.38364     18.66356        -0.063451      0.001837      0.001793
     11.82187     10.38362     18.66362         0.063591      0.001991      0.001931
      9.83490      8.89897     17.38225        -0.000511      0.001890     -0.024234
      9.84312      8.89841     19.98303         0.000920      0.003406     -0.030562
     11.07768     10.37820     22.11014         0.003268      0.016475     -0.010590
      2.06387     10.37835     22.10973        -0.001536      0.016712     -0.011271
      0.00003      8.89380     20.63942         0.000099     -0.002590     -0.013702
      0.00006      8.89848     23.20442        -0.000115      0.000770     -0.019424
 -----------------------------------------------------------------------------------
    total drift:                                0.007900     -0.001457     -0.358924


--------------------------------------------------------------------------------------------------------



  FREE ENERGIE OF THE ION-ELECTRON SYSTEM (eV)
  ---------------------------------------------------
  free  energy   TOTEN  =     -2121.37651478 eV

  energy  without entropy=    -2121.33096686  energy(sigma->0) =    -2121.35374082
 


--------------------------------------------------------------------------------------------------------


    POTLOK:  cpu time    0.4014: real time    0.4024


--------------------------------------------------------------------------------------------------------


     LOOP+:  cpu time 2019.3479: real time 2024.4271
    4ORBIT:  cpu time    0.0000: real time    0.0000



 total charge

# of ion       s       p       d       tot
------------------------------------------
    1        2.213   6.283   1.733  10.230
    2        2.197   6.236   1.719  10.152
    3        2.215   6.283   1.696  10.195
    4        2.216   6.286   1.695  10.197
    5        2.215   6.285   1.697  10.197
    6        2.212   6.280   1.695  10.187
    7        2.216   6.279   1.731  10.226
    8        2.211   6.263   1.706  10.179
    9        2.213   6.274   1.795  10.282
   10        2.227   6.269   1.796  10.291
   11        2.213   6.283   1.734  10.230
   12        2.197   6.236   1.719  10.152
   13        2.215   6.283   1.696  10.195
   14        2.216   6.285   1.696  10.197
   15        2.215   6.285   1.693  10.194
   16        2.213   6.280   1.697  10.190
   17        2.216   6.280   1.730  10.226
   18        2.214   6.277   1.703  10.194
   19        2.236   6.276   1.876  10.387
   20        2.226   6.266   1.797  10.289
   21        2.213   6.283   1.734  10.230
   22        2.197   6.236   1.719  10.152
   23        2.215   6.283   1.696  10.195
   24        2.216   6.285   1.696  10.198
   25        2.215   6.285   1.693  10.194
   26        2.213   6.280   1.696  10.189
   27        2.216   6.280   1.730  10.226
   28        2.206   6.263   1.679  10.148
   29        2.236   6.276   1.876  10.387
   30        2.228   6.271   1.796  10.295
   31        2.213   6.283   1.733  10.230
   32        2.197   6.236   1.719  10.152
   33        2.215   6.283   1.696  10.195
   34        2.216   6.285   1.696  10.197
   35        2.215   6.285   1.697  10.197
   36        2.213   6.280   1.697  10.190
   37        2.216   6.279   1.731  10.226
   38        2.214   6.277   1.703  10.194
   39        2.213   6.274   1.795  10.282
   40        2.226   6.266   1.797  10.289
   41        2.213   6.283   1.734  10.230
   42        2.197   6.236   1.719  10.152
   43        2.215   6.283   1.696  10.195
   44        2.216   6.286   1.694  10.197
   45        2.215   6.286   1.697  10.197
   46        2.212   6.280   1.695  10.187
   47        2.216   6.279   1.731  10.226
   48        2.213   6.271   1.700  10.184
   49        2.213   6.272   1.760  10.245
   50        2.227   6.269   1.796  10.291
   51        2.213   6.283   1.734  10.230
   52        2.197   6.236   1.719  10.152
   53        2.215   6.283   1.696  10.195
   54        2.216   6.286   1.695  10.197
   55        2.215   6.286   1.697  10.197
   56        2.213   6.280   1.697  10.190
   57        2.216   6.280   1.730  10.226
   58        2.213   6.272   1.700  10.185
   59        2.211   6.269   1.760  10.240
   60        2.226   6.266   1.797  10.289
   61        2.213   6.283   1.734  10.230
   62        2.197   6.236   1.719  10.152
   63        2.215   6.283   1.696  10.195
   64        2.216   6.286   1.694  10.197
   65        2.215   6.286   1.697  10.197
   66        2.213   6.280   1.696  10.189
   67        2.216   6.280   1.730  10.226
   68        2.213   6.271   1.699  10.183
   69        2.211   6.269   1.760  10.240
   70        2.228   6.271   1.796  10.295
   71        2.213   6.283   1.734  10.230
   72        2.197   6.236   1.719  10.152
   73        2.215   6.283   1.696  10.195
   74        2.216   6.286   1.695  10.197
   75        2.215   6.286   1.697  10.197
   76        2.213   6.280   1.697  10.190
   77        2.216   6.280   1.731  10.226
   78        2.213   6.272   1.700  10.185
   79        2.213   6.272   1.760  10.246
   80        2.226   6.266   1.797  10.289
   81        1.575   3.474   0.000   5.050
   82        1.575   3.474   0.000   5.050
   83        1.584   3.364   0.000   4.948
   84        1.573   3.494   0.000   5.067
   85        1.573   3.490   0.000   5.063
   86        1.573   3.490   0.000   5.063
   87        1.572   3.479   0.000   5.050
   88        1.573   3.486   0.000   5.059
   89        1.573   3.489   0.000   5.062
   90        1.573   3.489   0.000   5.062
   91        1.574   3.487   0.000   5.061
   92        1.573   3.446   0.000   5.019
   93        1.572   3.484   0.000   5.056
   94        1.572   3.484   0.000   5.056
   95        1.576   3.504   0.000   5.080
   96        1.575   3.504   0.000   5.079
   97        1.570   3.480   0.000   5.050
   98        1.570   3.480   0.000   5.050
   99        1.570   3.462   0.000   5.032
  100        1.591   3.437   0.000   5.029
  101        1.575   3.474   0.000   5.050
  102        1.575   3.474   0.000   5.050
  103        1.584   3.364   0.000   4.948
  104        1.573   3.494   0.000   5.067
  105        1.573   3.490   0.000   5.063
  106        1.573   3.490   0.000   5.063
  107        1.572   3.479   0.000   5.050
  108        1.573   3.487   0.000   5.059
  109        1.573   3.490   0.000   5.063
  110        1.573   3.490   0.000   5.063
  111        1.574   3.489   0.000   5.063
  112        1.574   3.508   0.000   5.082
  113        1.571   3.481   0.000   5.053
  114        1.571   3.481   0.000   5.053
  115        1.576   3.505   0.000   5.080
  116        1.574   3.502   0.000   5.076
  117        1.568   3.475   0.000   5.043
  118        1.568   3.475   0.000   5.043
  119        1.580   3.473   0.000   5.053
  120        1.591   3.427   0.000   5.018
  121        1.575   3.474   0.000   5.050
  122        1.575   3.474   0.000   5.050
  123        1.584   3.364   0.000   4.948
  124        1.573   3.494   0.000   5.067
  125        1.573   3.490   0.000   5.063
  126        1.573   3.490   0.000   5.063
  127        1.572   3.479   0.000   5.050
  128        1.573   3.487   0.000   5.060
  129        1.573   3.490   0.000   5.063
  130        1.573   3.490   0.000   5.063
  131        1.574   3.486   0.000   5.060
  132        1.572   3.489   0.000   5.061
  133        1.571   3.481   0.000   5.053
  134        1.571   3.481   0.000   5.053
  135        1.576   3.504   0.000   5.080
  136        1.575   3.505   0.000   5.080
  137        1.568   3.475   0.000   5.043
  138        1.568   3.475   0.000   5.043
  139        1.569   3.480   0.000   5.049
  140        1.575   3.474   0.000   5.050
  141        1.575   3.474   0.000   5.050
  142        1.584   3.364   0.000   4.948
  143        1.573   3.494   0.000   5.067
  144        1.573   3.490   0.000   5.063
  145        1.573   3.490   0.000   5.063
  146        1.572   3.479   0.000   5.050
  147        1.573   3.487   0.000   5.059
  148        1.573   3.489   0.000   5.062
  149        1.573   3.489   0.000   5.062
  150        1.574   3.489   0.000   5.063
  151        1.574   3.508   0.000   5.082
  152        1.572   3.484   0.000   5.056
  153        1.572   3.484   0.000   5.056
  154        1.576   3.505   0.000   5.080
  155        1.574   3.502   0.000   5.076
  156        1.570   3.480   0.000   5.050
  157        1.570   3.480   0.000   5.050
  158        1.580   3.473   0.000   5.053
  159        1.591   3.427   0.000   5.018
  160        1.576   3.474   0.000   5.049
  161        1.576   3.474   0.000   5.049
  162        1.584   3.364   0.000   4.948
  163        1.573   3.494   0.000   5.068
  164        1.573   3.490   0.000   5.063
  165        1.573   3.490   0.000   5.063
  166        1.572   3.479   0.000   5.050
  167        1.573   3.486   0.000   5.059
  168        1.574   3.488   0.000   5.061
  169        1.574   3.488   0.000   5.061
  170        1.574   3.491   0.000   5.064
  171        1.572   3.469   0.000   5.041
  172        1.572   3.489   0.000   5.061
  173        1.572   3.489   0.000   5.061
  174        1.576   3.504   0.000   5.080
  175        1.574   3.504   0.000   5.078
  176        1.571   3.480   0.000   5.051
  177        1.571   3.480   0.000   5.051
  178        1.571   3.464   0.000   5.035
  179        1.592   3.434   0.000   5.026
  180        1.576   3.474   0.000   5.049
  181        1.576   3.474   0.000   5.049
  182        1.584   3.364   0.000   4.948
  183        1.573   3.495   0.000   5.068
  184        1.573   3.490   0.000   5.063
  185        1.573   3.490   0.000   5.063
  186        1.572   3.479   0.000   5.050
  187        1.573   3.487   0.000   5.059
  188        1.574   3.487   0.000   5.061
  189        1.574   3.487   0.000   5.061
  190        1.574   3.491   0.000   5.064
  191        1.572   3.469   0.000   5.041
  192        1.572   3.489   0.000   5.061
  193        1.572   3.489   0.000   5.061
  194        1.576   3.504   0.000   5.080
  195        1.574   3.502   0.000   5.076
  196        1.571   3.476   0.000   5.047
  197        1.571   3.476   0.000   5.047
  198        1.571   3.463   0.000   5.034
  199        1.591   3.434   0.000   5.026
  200        1.576   3.474   0.000   5.049
  201        1.576   3.474   0.000   5.049
  202        1.584   3.364   0.000   4.948
  203        1.573   3.495   0.000   5.068
  204        1.573   3.490   0.000   5.063
  205        1.573   3.490   0.000   5.063
  206        1.572   3.479   0.000   5.050
  207        1.573   3.487   0.000   5.060
  208        1.574   3.487   0.000   5.061
  209        1.574   3.487   0.000   5.061
  210        1.574   3.491   0.000   5.064
  211        1.572   3.469   0.000   5.041
  212        1.572   3.489   0.000   5.061
  213        1.572   3.489   0.000   5.061
  214        1.576   3.504   0.000   5.080
  215        1.575   3.505   0.000   5.080
  216        1.571   3.476   0.000   5.047
  217        1.571   3.476   0.000   5.047
  218        1.571   3.463   0.000   5.034
  219        1.592   3.434   0.000   5.026
  220        1.576   3.474   0.000   5.049
  221        1.576   3.474   0.000   5.049
  222        1.584   3.364   0.000   4.948
  223        1.573   3.495   0.000   5.068
  224        1.573   3.490   0.000   5.063
  225        1.573   3.490   0.000   5.063
  226        1.572   3.479   0.000   5.050
  227        1.573   3.487   0.000   5.059
  228        1.574   3.488   0.000   5.061
  229        1.574   3.488   0.000   5.061
  230        1.574   3.491   0.000   5.064
  231        1.572   3.469   0.000   5.041
  232        1.572   3.489   0.000   5.061
  233        1.572   3.489   0.000   5.061
  234        1.576   3.504   0.000   5.080
  235        1.574   3.502   0.000   5.076
  236        1.571   3.480   0.000   5.051
  237        1.571   3.480   0.000   5.051
  238        1.571   3.463   0.000   5.034
  239        1.591   3.434   0.000   5.026
--------------------------------------------------
tot        427.4681054.775 138.0801620.323
 

 total amount of memory used by VASP MPI-rank0   190701. kBytes
=======================================================================

   base      :      30000. kBytes
   nonlr-proj:      17827. kBytes
   fftplans  :      10811. kBytes
   grid      :      17629. kBytes
   one-center:        186. kBytes
   wavefun   :     114248. kBytes
 
  
  
 General timing and accounting informations for this job:
 ========================================================
  
                  Total CPU time used (sec):     2106.386
                            User time (sec):     2101.303
                          System time (sec):        5.083
                         Elapsed time (sec):     2112.971
  
                   Maximum memory used (kb):      548348.
                   Average memory used (kb):          N/A
  
                          Minor page faults:       277418
                          Major page faults:            8
                 Voluntary context switches:        18644
