 **********************************************************************
                          MRCC program system
 **********************************************************************
 
                              Written by
 Mihaly Kallay, Peter R. Nagy, David Mester, Zoltan Rolik, Gyula Samu,
   Jozsef Csontos, Jozsef Csoka, P. Bernat Szabo, Laszlo Gyevi-Nagy,
    Bence Hegely, Istvan Ladjanszki, Lorant Szegedy, Bence Ladoczki,
       Klara Petrov, Mate Farkas, Pal D. Mezei, and Adam Ganyecz
 
        Department of Physical Chemistry and Materials Science
            Budapest University of Technology and Economics
                  Budapest P.O.Box 91, H-1521 Hungary
 
                              www.mrcc.hu
 
                    Release date: February 22, 2020

 ************************ 2021-11-18 06:00:38 *************************
 Executing minp...

 Reading input from MINP...
 
 Input file:
 
calc=SCF
dft=PBE
scftype=rks
verbosity=3
mem=490GB
symm=off
unit=angs
scfiguess=mo
scfmaxit=1000

charge=-42
basis=special
def2-TZVPP
def2-TZVPP
def2-TZVPP
def2-TZVPP
def2-TZVPP
def2-TZVPP
def2-TZVPP
def2-TZVPP
def2-TZVPP
def2-TZVPP
def2-TZVPP
def2-TZVPP
def2-TZVPP
def2-TZVPP
def2-TZVPP
def2-TZVPP
def2-TZVPP
def2-TZVPP
def2-TZVPP
def2-TZVPP
def2-TZVPP
def2-TZVPP
def2-TZVPP
def2-TZVPP
def2-TZVPP
def2-TZVPP
def2-TZVPP
def2-TZVPP
def2-TZVPP
def2-TZVPP
def2-TZVPP
def2-TZVPP
def2-TZVPP
def2-TZVPP
def2-TZVPP
def2-TZVPP
def2-TZVPP
def2-TZVPP
def2-TZVPP
def2-TZVPP
def2-TZVPP
def2-TZVPP
def2-TZVPP
def2-TZVPP
def2-TZVPP
def2-TZVPP
def2-TZVPP
def2-TZVPP
def2-TZVPP
def2-TZVPP
def2-TZVPP
def2-TZVPP
def2-TZVPP
def2-TZVPP
nothing
nothing
nothing
nothing
nothing
nothing
nothing
nothing
nothing
nothing
nothing
nothing
nothing
nothing
nothing
nothing
nothing
nothing
nothing
nothing
nothing
nothing
nothing
nothing
nothing
nothing
nothing
nothing
nothing
nothing
nothing
nothing
nothing
nothing
nothing
nothing
nothing
nothing
nothing
nothing
nothing
nothing
nothing
nothing
nothing
nothing
nothing
nothing
nothing
nothing
nothing
nothing
nothing
nothing
nothing
nothing
nothing
nothing
nothing
nothing
nothing
nothing
nothing
nothing
nothing
nothing
nothing
nothing
nothing
nothing
nothing
nothing
nothing
nothing
nothing
nothing
nothing
nothing
nothing
nothing
nothing
nothing
nothing
nothing
nothing
nothing
nothing
nothing
nothing
nothing
nothing
nothing
nothing
nothing
nothing
nothing
nothing
nothing
nothing
nothing
nothing
nothing
nothing
nothing
nothing
nothing
nothing
nothing
nothing
nothing
nothing
nothing
nothing
nothing
nothing
nothing
nothing
nothing
nothing
nothing
nothing
nothing
nothing
nothing
nothing
nothing
nothing
nothing
nothing
nothing
nothing
nothing
nothing
nothing
nothing
nothing
nothing
nothing
nothing
nothing
nothing
nothing
nothing
nothing
nothing
nothing
nothing
nothing
nothing
nothing
nothing
nothing
nothing
nothing
nothing
nothing
nothing
nothing
nothing
nothing
nothing
nothing
nothing
nothing
nothing
nothing
nothing
nothing
nothing
nothing
nothing
nothing
nothing
nothing
nothing
nothing
nothing
nothing
nothing
nothing
nothing
nothing
nothing
nothing
nothing
nothing
nothing
nothing
nothing
nothing
nothing
nothing
nothing
nothing
nothing
nothing
nothing
nothing
nothing
nothing
nothing
nothing

dfbasis_scf=special
def2-QZVPP-RI-JK
def2-QZVPP-RI-JK
def2-QZVPP-RI-JK
def2-QZVPP-RI-JK
def2-QZVPP-RI-JK
def2-QZVPP-RI-JK
def2-QZVPP-RI-JK
def2-QZVPP-RI-JK
def2-QZVPP-RI-JK
def2-QZVPP-RI-JK
def2-QZVPP-RI-JK
def2-QZVPP-RI-JK
def2-QZVPP-RI-JK
def2-QZVPP-RI-JK
def2-QZVPP-RI-JK
def2-QZVPP-RI-JK
def2-QZVPP-RI-JK
def2-QZVPP-RI-JK
def2-QZVPP-RI-JK
def2-QZVPP-RI-JK
def2-QZVPP-RI-JK
def2-QZVPP-RI-JK
def2-QZVPP-RI-JK
def2-QZVPP-RI-JK
def2-QZVPP-RI-JK
def2-QZVPP-RI-JK
def2-QZVPP-RI-JK
def2-QZVPP-RI-JK
def2-QZVPP-RI-JK
def2-QZVPP-RI-JK
def2-QZVPP-RI-JK
def2-QZVPP-RI-JK
def2-QZVPP-RI-JK
def2-QZVPP-RI-JK
def2-QZVPP-RI-JK
def2-QZVPP-RI-JK
def2-QZVPP-RI-JK
def2-QZVPP-RI-JK
def2-QZVPP-RI-JK
def2-QZVPP-RI-JK
def2-QZVPP-RI-JK
def2-QZVPP-RI-JK
def2-QZVPP-RI-JK
def2-QZVPP-RI-JK
def2-QZVPP-RI-JK
def2-QZVPP-RI-JK
def2-QZVPP-RI-JK
def2-QZVPP-RI-JK
def2-QZVPP-RI-JK
def2-QZVPP-RI-JK
def2-QZVPP-RI-JK
def2-QZVPP-RI-JK
def2-QZVPP-RI-JK
def2-QZVPP-RI-JK
nothing
nothing
nothing
nothing
nothing
nothing
nothing
nothing
nothing
nothing
nothing
nothing
nothing
nothing
nothing
nothing
nothing
nothing
nothing
nothing
nothing
nothing
nothing
nothing
nothing
nothing
nothing
nothing
nothing
nothing
nothing
nothing
nothing
nothing
nothing
nothing
nothing
nothing
nothing
nothing
nothing
nothing
nothing
nothing
nothing
nothing
nothing
nothing
nothing
nothing
nothing
nothing
nothing
nothing
nothing
nothing
nothing
nothing
nothing
nothing
nothing
nothing
nothing
nothing
nothing
nothing
nothing
nothing
nothing
nothing
nothing
nothing
nothing
nothing
nothing
nothing
nothing
nothing
nothing
nothing
nothing
nothing
nothing
nothing
nothing
nothing
nothing
nothing
nothing
nothing
nothing
nothing
nothing
nothing
nothing
nothing
nothing
nothing
nothing
nothing
nothing
nothing
nothing
nothing
nothing
nothing
nothing
nothing
nothing
nothing
nothing
nothing
nothing
nothing
nothing
nothing
nothing
nothing
nothing
nothing
nothing
nothing
nothing
nothing
nothing
nothing
nothing
nothing
nothing
nothing
nothing
nothing
nothing
nothing
nothing
nothing
nothing
nothing
nothing
nothing
nothing
nothing
nothing
nothing
nothing
nothing
nothing
nothing
nothing
nothing
nothing
nothing
nothing
nothing
nothing
nothing
nothing
nothing
nothing
nothing
nothing
nothing
nothing
nothing
nothing
nothing
nothing
nothing
nothing
nothing
nothing
nothing
nothing
nothing
nothing
nothing
nothing
nothing
nothing
nothing
nothing
nothing
nothing
nothing
nothing
nothing
nothing
nothing
nothing
nothing
nothing
nothing
nothing
nothing
nothing
nothing
nothing
nothing
nothing
nothing
nothing
nothing

ecp=special
none
none
none
none
none
none
none
none
none
none
none
none
none
none
none
none
none
none
none
none
none
none
none
none
none
none
none
none
none
none
none
none
none
none
none
none
none
none
none
none
none
none
none
none
none
none
none
none
none
none
none
none
none
none
ECP-22
ECP-22
ECP-22
ECP-22
ECP-22
ECP-22
ECP-22
ECP-22
ECP-22
ECP-22
ECP-22
ECP-22
ECP-22
ECP-22
ECP-22
ECP-22
ECP-22
ECP-22
ECP-22
ECP-22
ECP-22
ECP-22
ECP-22
ECP-22
ECP-22
ECP-22
ECP-22
ECP-22
ECP-22
ECP-22
ECP-22
ECP-22
ECP-22
ECP-22
ECP-22
ECP-22
ECP-22
ECP-22
ECP-22
ECP-22
ECP-22
ECP-22
ECP-22
ECP-22
ECP-22
ECP-22
ECP-22
ECP-22
ECP-22
ECP-22
ECP-22
ECP-22
ECP-22
ECP-22
ECP-22
ECP-22
ECP-22
ECP-22
ECP-22
ECP-22
ECP-22
ECP-22
ECP-22
ECP-22
ECP-22
ECP-22
ECP-22
ECP-22
ECP-22
ECP-22
ECP-22
ECP-22
ECP-22
ECP-22
ECP-22
ECP-22
ECP-22
ECP-22
ECP-22
ECP-22
ECP-22
ECP-22
ECP-22
ECP-22
ECP-22
ECP-22
ECP-22
ECP-22
ECP-22
ECP-22
ECP-22
ECP-22
ECP-22
ECP-22
ECP-22
ECP-22
ECP-22
ECP-22
ECP-22
ECP-22
ECP-22
ECP-22
ECP-22
ECP-22
ECP-22
ECP-22
ECP-22
ECP-22
ECP-22
ECP-22
ECP-22
ECP-22
ECP-22
ECP-22
ECP-22
ECP-22
ECP-22
ECP-22
ECP-22
ECP-22
ECP-22
ECP-22
ECP-22
ECP-22
ECP-22
ECP-22
ECP-22
ECP-22
ECP-22
ECP-22
ECP-22
ECP-22
ECP-22
ECP-22
ECP-22
ECP-22
ECP-22
ECP-22
ECP-22
ECP-22
ECP-22
ECP-22
ECP-22
ECP-22
ECP-22
ECP-22
ECP-22
ECP-22
ECP-22
ECP-22
ECP-22
ECP-22
ECP-22
ECP-22
ECP-22
ECP-22
ECP-22
ECP-22
ECP-22
ECP-22
ECP-22
ECP-22
ECP-22
ECP-22
ECP-22
ECP-22
ECP-22
ECP-22
ECP-22
ECP-22
ECP-22
ECP-22
ECP-22
ECP-22
ECP-22
ECP-22
ECP-22
ECP-22
ECP-22
ECP-22
ECP-22
ECP-22
ECP-22
ECP-22
ECP-22
ECP-22
ECP-22
ECP-22
ECP-22
ECP-22
ECP-22
ECP-22
ECP-22
ECP-22
ECP-22
ECP-22
ECP-22
ECP-22
ECP-22
ECP-22
ECP-22
ECP-22

unit=angs
geom=xyz
256

O     0.00000000000    0.00000000000    0.00000000000
Ti    0.00000000000    1.48054676798   -1.27209143018
Ti    0.00000000000   -1.48054676798   -1.27209143018
Ti    0.00000000000    0.00000000000    1.98192821856
O    -0.00000000000    0.00000000000   -2.54418286035
O    -1.27209143018    1.48054676798    1.98192821856
O     1.27209143018    1.48054676798    1.98192821856
O     1.27209143018   -1.48054676798    1.98192821856
O    -1.27209143018   -1.48054676798    1.98192821856
O    -1.98192821856    1.48054676798   -1.27209143018
O     1.98192821856    1.48054676798   -1.27209143018
O     1.98192821856   -1.48054676798   -1.27209143018
O    -1.98192821856   -1.48054676798   -1.27209143018
O     0.00000000000    2.96109353596    0.00000000000
O     0.00000000000   -2.96109353596    0.00000000000
O    -3.25401964873    0.00000000000    0.70983678838
O     3.25401964873    0.00000000000    0.70983678838
Ti   -3.25401964873    0.00000000000   -1.27209143018
Ti    3.25401964873    0.00000000000   -1.27209143018
Ti    0.00000000000    2.96109353596    1.98192821856
Ti    0.00000000000   -2.96109353596    1.98192821856
O    -0.00000000000    2.96109353596   -2.54418286035
O    -0.00000000000   -2.96109353596   -2.54418286035
O    -0.00000000000    0.00000000000    3.96385643712
Ti   -3.25401964873    1.48054676798    1.98192821856
Ti    3.25401964873    1.48054676798    1.98192821856
Ti    3.25401964873   -1.48054676798    1.98192821856
Ti   -3.25401964873   -1.48054676798    1.98192821856
O    -3.25401964873    2.96109353596    0.70983678838
O     3.25401964873    2.96109353596    0.70983678838
O     3.25401964873   -2.96109353596    0.70983678838
O    -3.25401964873   -2.96109353596    0.70983678838
O    -3.25401964873    0.00000000000    3.25401964873
O     3.25401964873    0.00000000000    3.25401964873
O    -3.25401964873    0.00000000000   -3.25401964873
O     3.25401964873    0.00000000000   -3.25401964873
O    -4.52611107891    1.48054676798   -1.27209143018
O     4.52611107891    1.48054676798   -1.27209143018
O     4.52611107891   -1.48054676798   -1.27209143018
O    -4.52611107891   -1.48054676798   -1.27209143018
O    -0.00000000000    2.96109353596    3.96385643712
O    -0.00000000000   -2.96109353596    3.96385643712
O    -1.27209143018    4.44164030394    1.98192821856
O     1.27209143018    4.44164030394    1.98192821856
O     1.27209143018   -4.44164030394    1.98192821856
O    -1.27209143018   -4.44164030394    1.98192821856
O    -3.25401964873    2.96109353596    3.25401964873
O     3.25401964873    2.96109353596    3.25401964873
O     3.25401964873   -2.96109353596    3.25401964873
O    -3.25401964873   -2.96109353596    3.25401964873
O    -5.23594786729    1.48054676798    1.98192821856
O     5.23594786729    1.48054676798    1.98192821856
O     5.23594786729   -1.48054676798    1.98192821856
O    -5.23594786729   -1.48054676798    1.98192821856
Ti    0.00000000000    0.00000000000   -4.52611107891
Ti   -3.25401964873    2.96109353596   -1.27209143018
Ti    3.25401964873    2.96109353596   -1.27209143018
Ti    3.25401964873   -2.96109353596   -1.27209143018
Ti   -3.25401964873   -2.96109353596   -1.27209143018
Ti    0.00000000000    4.44164030394   -1.27209143018
Ti    0.00000000000   -4.44164030394   -1.27209143018
Ti    0.00000000000    2.96109353596   -4.52611107891
Ti    0.00000000000   -2.96109353596   -4.52611107891
Ti    0.00000000000    1.48054676798    5.23594786729
Ti    0.00000000000   -1.48054676798    5.23594786729
Ti   -3.25401964873    1.48054676798   -4.52611107891
Ti    3.25401964873    1.48054676798   -4.52611107891
Ti    3.25401964873   -1.48054676798   -4.52611107891
Ti   -3.25401964873   -1.48054676798   -4.52611107891
Ti   -3.25401964873    4.44164030394    1.98192821856
Ti    3.25401964873    4.44164030394    1.98192821856
Ti    3.25401964873   -4.44164030394    1.98192821856
Ti   -3.25401964873   -4.44164030394    1.98192821856
Ti   -3.25401964873    0.00000000000    5.23594786729
Ti    3.25401964873    0.00000000000    5.23594786729
Ti    0.00000000000    5.92218707193    1.98192821856
Ti    0.00000000000   -5.92218707193    1.98192821856
Ti   -6.50803929747    1.48054676798   -1.27209143018
Ti    6.50803929747    1.48054676798   -1.27209143018
Ti    6.50803929747   -1.48054676798   -1.27209143018
Ti   -6.50803929747   -1.48054676798   -1.27209143018
Ti   -6.50803929747    0.00000000000    1.98192821856
Ti    6.50803929747    0.00000000000    1.98192821856
Ti   -3.25401964873    2.96109353596    5.23594786729
Ti    3.25401964873    2.96109353596    5.23594786729
Ti    3.25401964873   -2.96109353596    5.23594786729
Ti   -3.25401964873   -2.96109353596    5.23594786729
Ti    0.00000000000    4.44164030394    5.23594786729
Ti    0.00000000000   -4.44164030394    5.23594786729
Ti   -3.25401964873    5.92218707193   -1.27209143018
Ti    3.25401964873    5.92218707193   -1.27209143018
Ti    3.25401964873   -5.92218707193   -1.27209143018
Ti   -3.25401964873   -5.92218707193   -1.27209143018
Ti   -3.25401964873    4.44164030394   -4.52611107891
Ti    3.25401964873    4.44164030394   -4.52611107891
Ti    3.25401964873   -4.44164030394   -4.52611107891
Ti   -3.25401964873   -4.44164030394   -4.52611107891
Ti   -6.50803929747    2.96109353596    1.98192821856
Ti    6.50803929747    2.96109353596    1.98192821856
Ti    6.50803929747   -2.96109353596    1.98192821856
Ti   -6.50803929747   -2.96109353596    1.98192821856
Ti    0.00000000000    5.92218707193   -4.52611107891
Ti    0.00000000000   -5.92218707193   -4.52611107891
Ti    0.00000000000    7.40273383991   -1.27209143018
Ti    0.00000000000   -7.40273383991   -1.27209143018
Ti    0.00000000000    1.48054676798   -7.78013072764
Ti    0.00000000000   -1.48054676798   -7.78013072764
Ti   -6.50803929747    0.00000000000   -4.52611107891
Ti    6.50803929747    0.00000000000   -4.52611107891
Ti   -6.50803929747    4.44164030394   -1.27209143018
Ti    6.50803929747    4.44164030394   -1.27209143018
Ti    6.50803929747   -4.44164030394   -1.27209143018
Ti   -6.50803929747   -4.44164030394   -1.27209143018
Ti   -3.25401964873    7.40273383991    1.98192821856
Ti    3.25401964873    7.40273383991    1.98192821856
Ti    3.25401964873   -7.40273383991    1.98192821856
Ti   -3.25401964873   -7.40273383991    1.98192821856
Ti   -3.25401964873    0.00000000000   -7.78013072764
Ti    3.25401964873    0.00000000000   -7.78013072764
Ti   -6.50803929747    2.96109353596   -4.52611107891
Ti    6.50803929747    2.96109353596   -4.52611107891
Ti    6.50803929747   -2.96109353596   -4.52611107891
Ti   -6.50803929747   -2.96109353596   -4.52611107891
Ti   -6.50803929747    1.48054676798    5.23594786729
Ti    6.50803929747    1.48054676798    5.23594786729
Ti    6.50803929747   -1.48054676798    5.23594786729
Ti   -6.50803929747   -1.48054676798    5.23594786729
Ti    0.00000000000    0.00000000000    8.48996751602
Ti   -3.25401964873    5.92218707193    5.23594786729
Ti    3.25401964873    5.92218707193    5.23594786729
Ti    3.25401964873   -5.92218707193    5.23594786729
Ti   -3.25401964873   -5.92218707193    5.23594786729
Ti   -3.25401964873    2.96109353596   -7.78013072764
Ti    3.25401964873    2.96109353596   -7.78013072764
Ti    3.25401964873   -2.96109353596   -7.78013072764
Ti   -3.25401964873   -2.96109353596   -7.78013072764
Ti    0.00000000000    4.44164030394   -7.78013072764
Ti    0.00000000000   -4.44164030394   -7.78013072764
Ti    0.00000000000    2.96109353596    8.48996751602
Ti    0.00000000000   -2.96109353596    8.48996751602
Ti   -6.50803929747    5.92218707193    1.98192821856
Ti    6.50803929747    5.92218707193    1.98192821856
Ti    6.50803929747   -5.92218707193    1.98192821856
Ti   -6.50803929747   -5.92218707193    1.98192821856
Ti    0.00000000000    7.40273383991    5.23594786729
Ti    0.00000000000   -7.40273383991    5.23594786729
Ti    0.00000000000    8.88328060789    1.98192821856
Ti    0.00000000000   -8.88328060789    1.98192821856
Ti   -3.25401964873    1.48054676798    8.48996751602
Ti    3.25401964873    1.48054676798    8.48996751602
Ti    3.25401964873   -1.48054676798    8.48996751602
Ti   -3.25401964873   -1.48054676798    8.48996751602
Ti   -3.25401964873    7.40273383991   -4.52611107891
Ti    3.25401964873    7.40273383991   -4.52611107891
Ti    3.25401964873   -7.40273383991   -4.52611107891
Ti   -3.25401964873   -7.40273383991   -4.52611107891
Ti   -6.50803929747    4.44164030394    5.23594786729
Ti    6.50803929747    4.44164030394    5.23594786729
Ti    6.50803929747   -4.44164030394    5.23594786729
Ti   -6.50803929747   -4.44164030394    5.23594786729
Ti   -3.25401964873    8.88328060789   -1.27209143018
Ti    3.25401964873    8.88328060789   -1.27209143018
Ti    3.25401964873   -8.88328060789   -1.27209143018
Ti   -3.25401964873   -8.88328060789   -1.27209143018
Ti   -9.76205894620    0.00000000000   -1.27209143018
Ti    9.76205894620    0.00000000000   -1.27209143018
Ti   -6.50803929747    5.92218707193   -4.52611107891
Ti    6.50803929747    5.92218707193   -4.52611107891
Ti    6.50803929747   -5.92218707193   -4.52611107891
Ti   -6.50803929747   -5.92218707193   -4.52611107891
Ti   -6.50803929747    7.40273383991   -1.27209143018
Ti    6.50803929747    7.40273383991   -1.27209143018
Ti    6.50803929747   -7.40273383991   -1.27209143018
Ti   -6.50803929747   -7.40273383991   -1.27209143018
Ti    0.00000000000    8.88328060789   -4.52611107891
Ti    0.00000000000   -8.88328060789   -4.52611107891
Ti   -9.76205894620    1.48054676798    1.98192821856
Ti    9.76205894620    1.48054676798    1.98192821856
Ti    9.76205894620   -1.48054676798    1.98192821856
Ti   -9.76205894620   -1.48054676798    1.98192821856
Ti   -3.25401964873    4.44164030394    8.48996751602
Ti    3.25401964873    4.44164030394    8.48996751602
Ti    3.25401964873   -4.44164030394    8.48996751602
Ti   -3.25401964873   -4.44164030394    8.48996751602
Ti   -6.50803929747    1.48054676798   -7.78013072764
Ti    6.50803929747    1.48054676798   -7.78013072764
Ti    6.50803929747   -1.48054676798   -7.78013072764
Ti   -6.50803929747   -1.48054676798   -7.78013072764
Ti   -9.76205894620    2.96109353596   -1.27209143018
Ti    9.76205894620    2.96109353596   -1.27209143018
Ti    9.76205894620   -2.96109353596   -1.27209143018
Ti   -9.76205894620   -2.96109353596   -1.27209143018
Ti   -3.25401964873    5.92218707193   -7.78013072764
Ti    3.25401964873    5.92218707193   -7.78013072764
Ti    3.25401964873   -5.92218707193   -7.78013072764
Ti   -3.25401964873   -5.92218707193   -7.78013072764
Ti    0.00000000000    5.92218707193    8.48996751602
Ti    0.00000000000   -5.92218707193    8.48996751602
Ti    0.00000000000   10.36382737587   -1.27209143018
Ti    0.00000000000  -10.36382737587   -1.27209143018
Ti   -6.50803929747    0.00000000000    8.48996751602
Ti    6.50803929747    0.00000000000    8.48996751602
Ti    0.00000000000    7.40273383991   -7.78013072764
Ti    0.00000000000   -7.40273383991   -7.78013072764
Ti   -3.25401964873    8.88328060789    5.23594786729
Ti    3.25401964873    8.88328060789    5.23594786729
Ti    3.25401964873   -8.88328060789    5.23594786729
Ti   -3.25401964873   -8.88328060789    5.23594786729
Ti   -9.76205894620    1.48054676798   -4.52611107891
Ti    9.76205894620    1.48054676798   -4.52611107891
Ti    9.76205894620   -1.48054676798   -4.52611107891
Ti   -9.76205894620   -1.48054676798   -4.52611107891
Ti   -9.76205894620    4.44164030394    1.98192821856
Ti    9.76205894620    4.44164030394    1.98192821856
Ti    9.76205894620   -4.44164030394    1.98192821856
Ti   -9.76205894620   -4.44164030394    1.98192821856
Ti   -3.25401964873   10.36382737587    1.98192821856
Ti    3.25401964873   10.36382737587    1.98192821856
Ti    3.25401964873  -10.36382737587    1.98192821856
Ti   -3.25401964873  -10.36382737587    1.98192821856
Ti   -9.76205894620    0.00000000000    5.23594786729
Ti    9.76205894620    0.00000000000    5.23594786729
Ti   -6.50803929747    2.96109353596    8.48996751602
Ti    6.50803929747    2.96109353596    8.48996751602
Ti    6.50803929747   -2.96109353596    8.48996751602
Ti   -6.50803929747   -2.96109353596    8.48996751602
Ti   -6.50803929747    7.40273383991    5.23594786729
Ti    6.50803929747    7.40273383991    5.23594786729
Ti    6.50803929747   -7.40273383991    5.23594786729
Ti   -6.50803929747   -7.40273383991    5.23594786729
Ti   -6.50803929747    8.88328060789    1.98192821856
Ti    6.50803929747    8.88328060789    1.98192821856
Ti    6.50803929747   -8.88328060789    1.98192821856
Ti   -6.50803929747   -8.88328060789    1.98192821856
Ti   -9.76205894620    2.96109353596    5.23594786729
Ti    9.76205894620    2.96109353596    5.23594786729
Ti    9.76205894620   -2.96109353596    5.23594786729
Ti   -9.76205894620   -2.96109353596    5.23594786729
Ti   -9.76205894620    5.92218707193   -1.27209143018
Ti    9.76205894620    5.92218707193   -1.27209143018
Ti    9.76205894620   -5.92218707193   -1.27209143018
Ti   -9.76205894620   -5.92218707193   -1.27209143018
Ti    0.00000000000   10.36382737587    5.23594786729
Ti    0.00000000000  -10.36382737587    5.23594786729
Ti   -9.76205894620    4.44164030394   -4.52611107891
Ti    9.76205894620    4.44164030394   -4.52611107891
Ti    9.76205894620   -4.44164030394   -4.52611107891
Ti   -9.76205894620   -4.44164030394   -4.52611107891
Ti   -3.25401964873    7.40273383991    8.48996751602
Ti    3.25401964873    7.40273383991    8.48996751602
Ti    3.25401964873   -7.40273383991    8.48996751602
Ti   -3.25401964873   -7.40273383991    8.48996751602
Ti   -6.50803929747    5.92218707193    8.48996751602
Ti    6.50803929747    5.92218707193    8.48996751602
Ti    6.50803929747   -5.92218707193    8.48996751602
Ti   -6.50803929747   -5.92218707193    8.48996751602

qmmm=Amber
pointcharges
10784
      0.00000000000    0.00000000000   -4.52611107891    4.00000000000
     -3.25401964873    2.96109353596   -1.27209143018    4.00000000000
      3.25401964873    2.96109353596   -1.27209143018    4.00000000000
      3.25401964873   -2.96109353596   -1.27209143018    4.00000000000
     -3.25401964873   -2.96109353596   -1.27209143018    4.00000000000
      0.00000000000    4.44164030394   -1.27209143018    4.00000000000
      0.00000000000   -4.44164030394   -1.27209143018    4.00000000000
     -1.27209143018    1.48054676798   -4.52611107891   -2.00000000000
      1.27209143018    1.48054676798   -4.52611107891   -2.00000000000
      1.27209143018   -1.48054676798   -4.52611107891   -2.00000000000
     -1.27209143018   -1.48054676798   -4.52611107891   -2.00000000000
     -1.98192821856    4.44164030394   -1.27209143018   -2.00000000000
      1.98192821856    4.44164030394   -1.27209143018   -2.00000000000
      1.98192821856   -4.44164030394   -1.27209143018   -2.00000000000
     -1.98192821856   -4.44164030394   -1.27209143018   -2.00000000000
      0.00000000000    2.96109353596   -4.52611107891    4.00000000000
      0.00000000000   -2.96109353596   -4.52611107891    4.00000000000
      0.00000000000    1.48054676798    5.23594786729    4.00000000000
      0.00000000000   -1.48054676798    5.23594786729    4.00000000000
     -3.25401964873    2.96109353596   -3.25401964873   -2.00000000000
      3.25401964873    2.96109353596   -3.25401964873   -2.00000000000
      3.25401964873   -2.96109353596   -3.25401964873   -2.00000000000
     -3.25401964873   -2.96109353596   -3.25401964873   -2.00000000000
     -3.25401964873    1.48054676798   -4.52611107891    4.00000000000
      3.25401964873    1.48054676798   -4.52611107891    4.00000000000
      3.25401964873   -1.48054676798   -4.52611107891    4.00000000000
     -3.25401964873   -1.48054676798   -4.52611107891    4.00000000000
     -1.98192821856    1.48054676798    5.23594786729   -2.00000000000
      1.98192821856    1.48054676798    5.23594786729   -2.00000000000
      1.98192821856   -1.48054676798    5.23594786729   -2.00000000000
     -1.98192821856   -1.48054676798    5.23594786729   -2.00000000000
     -3.25401964873    4.44164030394    1.98192821856    4.00000000000
      3.25401964873    4.44164030394    1.98192821856    4.00000000000
      3.25401964873   -4.44164030394    1.98192821856    4.00000000000
     -3.25401964873   -4.44164030394    1.98192821856    4.00000000000
      0.00000000000    5.92218707193    0.00000000000   -2.00000000000
      0.00000000000   -5.92218707193    0.00000000000   -2.00000000000
     -3.25401964873    0.00000000000    5.23594786729    4.00000000000
      3.25401964873    0.00000000000    5.23594786729    4.00000000000
      0.00000000000    5.92218707193    1.98192821856    4.00000000000
      0.00000000000   -5.92218707193    1.98192821856    4.00000000000
     -0.00000000000    5.92218707193   -2.54418286035   -2.00000000000
     -0.00000000000   -5.92218707193   -2.54418286035   -2.00000000000
     -4.52611107891    4.44164030394   -1.27209143018   -2.00000000000
      4.52611107891    4.44164030394   -1.27209143018   -2.00000000000
      4.52611107891   -4.44164030394   -1.27209143018   -2.00000000000
     -4.52611107891   -4.44164030394   -1.27209143018   -2.00000000000
     -1.27209143018    4.44164030394   -4.52611107891   -2.00000000000
      1.27209143018    4.44164030394   -4.52611107891   -2.00000000000
      1.27209143018   -4.44164030394   -4.52611107891   -2.00000000000
     -1.27209143018   -4.44164030394   -4.52611107891   -2.00000000000
      0.00000000000    0.00000000000    6.50803929747   -2.00000000000
     -6.50803929747    0.00000000000    0.00000000000   -2.00000000000
      6.50803929747    0.00000000000    0.00000000000   -2.00000000000
      0.00000000000    0.00000000000   -6.50803929747   -2.00000000000
     -3.25401964873    0.00000000000   -5.79820250908   -2.00000000000
      3.25401964873    0.00000000000   -5.79820250908   -2.00000000000
     -3.25401964873    5.92218707193    0.70983678838   -2.00000000000
      3.25401964873    5.92218707193    0.70983678838   -2.00000000000
      3.25401964873   -5.92218707193    0.70983678838   -2.00000000000
     -3.25401964873   -5.92218707193    0.70983678838   -2.00000000000
     -6.50803929747    1.48054676798   -1.27209143018    4.00000000000
      6.50803929747    1.48054676798   -1.27209143018    4.00000000000
      6.50803929747   -1.48054676798   -1.27209143018    4.00000000000
     -6.50803929747   -1.48054676798   -1.27209143018    4.00000000000
     -6.50803929747    0.00000000000    1.98192821856    4.00000000000
      6.50803929747    0.00000000000    1.98192821856    4.00000000000
     -3.25401964873    2.96109353596    5.23594786729    4.00000000000
      3.25401964873    2.96109353596    5.23594786729    4.00000000000
      3.25401964873   -2.96109353596    5.23594786729    4.00000000000
     -3.25401964873   -2.96109353596    5.23594786729    4.00000000000
      0.00000000000    4.44164030394    5.23594786729    4.00000000000
      0.00000000000   -4.44164030394    5.23594786729    4.00000000000
     -3.25401964873    5.92218707193   -1.27209143018    4.00000000000
      3.25401964873    5.92218707193   -1.27209143018    4.00000000000
      3.25401964873   -5.92218707193   -1.27209143018    4.00000000000
     -3.25401964873   -5.92218707193   -1.27209143018    4.00000000000
     -6.50803929747    0.00000000000   -2.54418286035   -2.00000000000
      6.50803929747    0.00000000000   -2.54418286035   -2.00000000000
     -4.52611107891    1.48054676798    5.23594786729   -2.00000000000
      4.52611107891    1.48054676798    5.23594786729   -2.00000000000
      4.52611107891   -1.48054676798    5.23594786729   -2.00000000000
     -4.52611107891   -1.48054676798    5.23594786729   -2.00000000000
     -5.23594786729    1.48054676798   -4.52611107891   -2.00000000000
      5.23594786729    1.48054676798   -4.52611107891   -2.00000000000
      5.23594786729   -1.48054676798   -4.52611107891   -2.00000000000
     -5.23594786729   -1.48054676798   -4.52611107891   -2.00000000000
     -0.00000000000    5.92218707193    3.96385643712   -2.00000000000
     -0.00000000000   -5.92218707193    3.96385643712   -2.00000000000
     -3.25401964873    4.44164030394   -4.52611107891    4.00000000000
      3.25401964873    4.44164030394   -4.52611107891    4.00000000000
      3.25401964873   -4.44164030394   -4.52611107891    4.00000000000
     -3.25401964873   -4.44164030394   -4.52611107891    4.00000000000
     -1.98192821856    4.44164030394    5.23594786729   -2.00000000000
      1.98192821856    4.44164030394    5.23594786729   -2.00000000000
      1.98192821856   -4.44164030394    5.23594786729   -2.00000000000
     -1.98192821856   -4.44164030394    5.23594786729   -2.00000000000
     -5.23594786729    4.44164030394    1.98192821856   -2.00000000000
      5.23594786729    4.44164030394    1.98192821856   -2.00000000000
      5.23594786729   -4.44164030394    1.98192821856   -2.00000000000
     -5.23594786729   -4.44164030394    1.98192821856   -2.00000000000
      0.00000000000    2.96109353596    6.50803929747   -2.00000000000
      0.00000000000   -2.96109353596    6.50803929747   -2.00000000000
     -6.50803929747    2.96109353596    0.00000000000   -2.00000000000
      6.50803929747    2.96109353596    0.00000000000   -2.00000000000
      6.50803929747   -2.96109353596    0.00000000000   -2.00000000000
     -6.50803929747   -2.96109353596    0.00000000000   -2.00000000000
      0.00000000000    2.96109353596   -6.50803929747   -2.00000000000
      0.00000000000   -2.96109353596   -6.50803929747   -2.00000000000
     -3.25401964873    2.96109353596   -5.79820250908   -2.00000000000
      3.25401964873    2.96109353596   -5.79820250908   -2.00000000000
      3.25401964873   -2.96109353596   -5.79820250908   -2.00000000000
     -3.25401964873   -2.96109353596   -5.79820250908   -2.00000000000
     -6.50803929747    2.96109353596    1.98192821856    4.00000000000
      6.50803929747    2.96109353596    1.98192821856    4.00000000000
      6.50803929747   -2.96109353596    1.98192821856    4.00000000000
     -6.50803929747   -2.96109353596    1.98192821856    4.00000000000
      0.00000000000    5.92218707193   -4.52611107891    4.00000000000
      0.00000000000   -5.92218707193   -4.52611107891    4.00000000000
     -3.25401964873    5.92218707193    3.25401964873   -2.00000000000
      3.25401964873    5.92218707193    3.25401964873   -2.00000000000
      3.25401964873   -5.92218707193    3.25401964873   -2.00000000000
     -3.25401964873   -5.92218707193    3.25401964873   -2.00000000000
     -3.25401964873    5.92218707193   -3.25401964873   -2.00000000000
      3.25401964873    5.92218707193   -3.25401964873   -2.00000000000
      3.25401964873   -5.92218707193   -3.25401964873   -2.00000000000
     -3.25401964873   -5.92218707193   -3.25401964873   -2.00000000000
      0.00000000000    7.40273383991   -1.27209143018    4.00000000000
      0.00000000000   -7.40273383991   -1.27209143018    4.00000000000
     -6.50803929747    2.96109353596   -2.54418286035   -2.00000000000
      6.50803929747    2.96109353596   -2.54418286035   -2.00000000000
      6.50803929747   -2.96109353596   -2.54418286035   -2.00000000000
     -6.50803929747   -2.96109353596   -2.54418286035   -2.00000000000
     -6.50803929747    0.00000000000    3.96385643712   -2.00000000000
      6.50803929747    0.00000000000    3.96385643712   -2.00000000000
     -1.27209143018    7.40273383991    1.98192821856   -2.00000000000
      1.27209143018    7.40273383991    1.98192821856   -2.00000000000
      1.27209143018   -7.40273383991    1.98192821856   -2.00000000000
     -1.27209143018   -7.40273383991    1.98192821856   -2.00000000000
     -1.98192821856    7.40273383991   -1.27209143018   -2.00000000000
      1.98192821856    7.40273383991   -1.27209143018   -2.00000000000
      1.98192821856   -7.40273383991   -1.27209143018   -2.00000000000
     -1.98192821856   -7.40273383991   -1.27209143018   -2.00000000000
     -3.25401964873    0.00000000000    7.21787608585   -2.00000000000
      3.25401964873    0.00000000000    7.21787608585   -2.00000000000
      0.00000000000    1.48054676798   -7.78013072764    4.00000000000
      0.00000000000   -1.48054676798   -7.78013072764    4.00000000000
     -6.50803929747    0.00000000000   -4.52611107891    4.00000000000
      6.50803929747    0.00000000000   -4.52611107891    4.00000000000
     -6.50803929747    4.44164030394   -1.27209143018    4.00000000000
      6.50803929747    4.44164030394   -1.27209143018    4.00000000000
      6.50803929747   -4.44164030394   -1.27209143018    4.00000000000
     -6.50803929747   -4.44164030394   -1.27209143018    4.00000000000
     -7.78013072764    1.48054676798    1.98192821856   -2.00000000000
      7.78013072764    1.48054676798    1.98192821856   -2.00000000000
      7.78013072764   -1.48054676798    1.98192821856   -2.00000000000
     -7.78013072764   -1.48054676798    1.98192821856   -2.00000000000
     -1.98192821856    1.48054676798   -7.78013072764   -2.00000000000
      1.98192821856    1.48054676798   -7.78013072764   -2.00000000000
      1.98192821856   -1.48054676798   -7.78013072764   -2.00000000000
     -1.98192821856   -1.48054676798   -7.78013072764   -2.00000000000
     -6.50803929747    2.96109353596    3.96385643712   -2.00000000000
      6.50803929747    2.96109353596    3.96385643712   -2.00000000000
      6.50803929747   -2.96109353596    3.96385643712   -2.00000000000
     -6.50803929747   -2.96109353596    3.96385643712   -2.00000000000
     -4.52611107891    4.44164030394    5.23594786729   -2.00000000000
      4.52611107891    4.44164030394    5.23594786729   -2.00000000000
      4.52611107891   -4.44164030394    5.23594786729   -2.00000000000
     -4.52611107891   -4.44164030394    5.23594786729   -2.00000000000
     -5.23594786729    4.44164030394   -4.52611107891   -2.00000000000
      5.23594786729    4.44164030394   -4.52611107891   -2.00000000000
      5.23594786729   -4.44164030394   -4.52611107891   -2.00000000000
     -5.23594786729   -4.44164030394   -4.52611107891   -2.00000000000
     -3.25401964873    7.40273383991    1.98192821856    4.00000000000
      3.25401964873    7.40273383991    1.98192821856    4.00000000000
      3.25401964873   -7.40273383991    1.98192821856    4.00000000000
     -3.25401964873   -7.40273383991    1.98192821856    4.00000000000
     -3.25401964873    0.00000000000   -7.78013072764    4.00000000000
      3.25401964873    0.00000000000   -7.78013072764    4.00000000000
     -3.25401964873    2.96109353596    7.21787608585   -2.00000000000
      3.25401964873    2.96109353596    7.21787608585   -2.00000000000
      3.25401964873   -2.96109353596    7.21787608585   -2.00000000000
     -3.25401964873   -2.96109353596    7.21787608585   -2.00000000000
     -6.50803929747    2.96109353596   -4.52611107891    4.00000000000
      6.50803929747    2.96109353596   -4.52611107891    4.00000000000
      6.50803929747   -2.96109353596   -4.52611107891    4.00000000000
     -6.50803929747   -2.96109353596   -4.52611107891    4.00000000000
     -6.50803929747    1.48054676798    5.23594786729    4.00000000000
      6.50803929747    1.48054676798    5.23594786729    4.00000000000
      6.50803929747   -1.48054676798    5.23594786729    4.00000000000
     -6.50803929747   -1.48054676798    5.23594786729    4.00000000000
      0.00000000000    0.00000000000    8.48996751602    4.00000000000
     -3.25401964873    5.92218707193    5.23594786729    4.00000000000
      3.25401964873    5.92218707193    5.23594786729    4.00000000000
      3.25401964873   -5.92218707193    5.23594786729    4.00000000000
     -3.25401964873   -5.92218707193    5.23594786729    4.00000000000
     -1.27209143018    1.48054676798    8.48996751602   -2.00000000000
      1.27209143018    1.48054676798    8.48996751602   -2.00000000000
      1.27209143018   -1.48054676798    8.48996751602   -2.00000000000
     -1.27209143018   -1.48054676798    8.48996751602   -2.00000000000
     -8.48996751602    1.48054676798   -1.27209143018   -2.00000000000
      8.48996751602    1.48054676798   -1.27209143018   -2.00000000000
      8.48996751602   -1.48054676798   -1.27209143018   -2.00000000000
     -8.48996751602   -1.48054676798   -1.27209143018   -2.00000000000
     -4.52611107891    7.40273383991   -1.27209143018   -2.00000000000
      4.52611107891    7.40273383991   -1.27209143018   -2.00000000000
      4.52611107891   -7.40273383991   -1.27209143018   -2.00000000000
     -4.52611107891   -7.40273383991   -1.27209143018   -2.00000000000
     -1.27209143018    7.40273383991   -4.52611107891   -2.00000000000
      1.27209143018    7.40273383991   -4.52611107891   -2.00000000000
      1.27209143018   -7.40273383991   -4.52611107891   -2.00000000000
     -1.27209143018   -7.40273383991   -4.52611107891   -2.00000000000
      0.00000000000    5.92218707193    6.50803929747   -2.00000000000
      0.00000000000   -5.92218707193    6.50803929747   -2.00000000000
     -6.50803929747    5.92218707193    0.00000000000   -2.00000000000
      6.50803929747    5.92218707193    0.00000000000   -2.00000000000
      6.50803929747   -5.92218707193    0.00000000000   -2.00000000000
     -6.50803929747   -5.92218707193    0.00000000000   -2.00000000000
      0.00000000000    5.92218707193   -6.50803929747   -2.00000000000
      0.00000000000   -5.92218707193   -6.50803929747   -2.00000000000
      0.00000000000    8.88328060789    0.00000000000   -2.00000000000
      0.00000000000   -8.88328060789    0.00000000000   -2.00000000000
     -3.25401964873    5.92218707193   -5.79820250908   -2.00000000000
      3.25401964873    5.92218707193   -5.79820250908   -2.00000000000
      3.25401964873   -5.92218707193   -5.79820250908   -2.00000000000
     -3.25401964873   -5.92218707193   -5.79820250908   -2.00000000000
     -3.25401964873    2.96109353596   -7.78013072764    4.00000000000
      3.25401964873    2.96109353596   -7.78013072764    4.00000000000
      3.25401964873   -2.96109353596   -7.78013072764    4.00000000000
     -3.25401964873   -2.96109353596   -7.78013072764    4.00000000000
      0.00000000000    4.44164030394   -7.78013072764    4.00000000000
      0.00000000000   -4.44164030394   -7.78013072764    4.00000000000
      0.00000000000    2.96109353596    8.48996751602    4.00000000000
      0.00000000000   -2.96109353596    8.48996751602    4.00000000000
     -6.50803929747    5.92218707193    1.98192821856    4.00000000000
      6.50803929747    5.92218707193    1.98192821856    4.00000000000
      6.50803929747   -5.92218707193    1.98192821856    4.00000000000
     -6.50803929747   -5.92218707193    1.98192821856    4.00000000000
     -0.00000000000    0.00000000000   -9.05222215782   -2.00000000000
      0.00000000000    7.40273383991    5.23594786729    4.00000000000
      0.00000000000   -7.40273383991    5.23594786729    4.00000000000
      0.00000000000    8.88328060789    1.98192821856    4.00000000000
      0.00000000000   -8.88328060789    1.98192821856    4.00000000000
     -7.78013072764    1.48054676798   -4.52611107891   -2.00000000000
      7.78013072764    1.48054676798   -4.52611107891   -2.00000000000
      7.78013072764   -1.48054676798   -4.52611107891   -2.00000000000
     -7.78013072764   -1.48054676798   -4.52611107891   -2.00000000000
     -4.52611107891    1.48054676798   -7.78013072764   -2.00000000000
      4.52611107891    1.48054676798   -7.78013072764   -2.00000000000
      4.52611107891   -1.48054676798   -7.78013072764   -2.00000000000
     -4.52611107891   -1.48054676798   -7.78013072764   -2.00000000000
     -6.50803929747    5.92218707193   -2.54418286035   -2.00000000000
      6.50803929747    5.92218707193   -2.54418286035   -2.00000000000
      6.50803929747   -5.92218707193   -2.54418286035   -2.00000000000
     -6.50803929747   -5.92218707193   -2.54418286035   -2.00000000000
     -7.78013072764    4.44164030394    1.98192821856   -2.00000000000
      7.78013072764    4.44164030394    1.98192821856   -2.00000000000
      7.78013072764   -4.44164030394    1.98192821856   -2.00000000000
     -7.78013072764   -4.44164030394    1.98192821856   -2.00000000000
     -1.98192821856    4.44164030394   -7.78013072764   -2.00000000000
      1.98192821856    4.44164030394   -7.78013072764   -2.00000000000
      1.98192821856   -4.44164030394   -7.78013072764   -2.00000000000
     -1.98192821856   -4.44164030394   -7.78013072764   -2.00000000000
     -6.50803929747    0.00000000000    6.50803929747   -2.00000000000
      6.50803929747    0.00000000000    6.50803929747   -2.00000000000
     -6.50803929747    0.00000000000   -6.50803929747   -2.00000000000
      6.50803929747    0.00000000000   -6.50803929747   -2.00000000000
     -3.25401964873    1.48054676798    8.48996751602    4.00000000000
      3.25401964873    1.48054676798    8.48996751602    4.00000000000
      3.25401964873   -1.48054676798    8.48996751602    4.00000000000
     -3.25401964873   -1.48054676798    8.48996751602    4.00000000000
     -0.00000000000    8.88328060789   -2.54418286035   -2.00000000000
     -0.00000000000   -8.88328060789   -2.54418286035   -2.00000000000
     -3.25401964873    7.40273383991   -4.52611107891    4.00000000000
      3.25401964873    7.40273383991   -4.52611107891    4.00000000000
      3.25401964873   -7.40273383991   -4.52611107891    4.00000000000
     -3.25401964873   -7.40273383991   -4.52611107891    4.00000000000
     -1.98192821856    7.40273383991    5.23594786729   -2.00000000000
      1.98192821856    7.40273383991    5.23594786729   -2.00000000000
      1.98192821856   -7.40273383991    5.23594786729   -2.00000000000
     -1.98192821856   -7.40273383991    5.23594786729   -2.00000000000
     -5.23594786729    7.40273383991    1.98192821856   -2.00000000000
      5.23594786729    7.40273383991    1.98192821856   -2.00000000000
      5.23594786729   -7.40273383991    1.98192821856   -2.00000000000
     -5.23594786729   -7.40273383991    1.98192821856   -2.00000000000
     -6.50803929747    4.44164030394    5.23594786729    4.00000000000
      6.50803929747    4.44164030394    5.23594786729    4.00000000000
      6.50803929747   -4.44164030394    5.23594786729    4.00000000000
     -6.50803929747   -4.44164030394    5.23594786729    4.00000000000
     -3.25401964873    8.88328060789    0.70983678838   -2.00000000000
      3.25401964873    8.88328060789    0.70983678838   -2.00000000000
      3.25401964873   -8.88328060789    0.70983678838   -2.00000000000
     -3.25401964873   -8.88328060789    0.70983678838   -2.00000000000
     -0.00000000000    2.96109353596   -9.05222215782   -2.00000000000
     -0.00000000000   -2.96109353596   -9.05222215782   -2.00000000000
     -3.25401964873    8.88328060789   -1.27209143018    4.00000000000
      3.25401964873    8.88328060789   -1.27209143018    4.00000000000
      3.25401964873   -8.88328060789   -1.27209143018    4.00000000000
     -3.25401964873   -8.88328060789   -1.27209143018    4.00000000000
     -6.50803929747    5.92218707193    3.96385643712   -2.00000000000
      6.50803929747    5.92218707193    3.96385643712   -2.00000000000
      6.50803929747   -5.92218707193    3.96385643712   -2.00000000000
     -6.50803929747   -5.92218707193    3.96385643712   -2.00000000000
     -1.27209143018    4.44164030394    8.48996751602   -2.00000000000
      1.27209143018    4.44164030394    8.48996751602   -2.00000000000
      1.27209143018   -4.44164030394    8.48996751602   -2.00000000000
     -1.27209143018   -4.44164030394    8.48996751602   -2.00000000000
     -8.48996751602    4.44164030394   -1.27209143018   -2.00000000000
      8.48996751602    4.44164030394   -1.27209143018   -2.00000000000
      8.48996751602   -4.44164030394   -1.27209143018   -2.00000000000
     -8.48996751602   -4.44164030394   -1.27209143018   -2.00000000000
     -6.50803929747    2.96109353596    6.50803929747   -2.00000000000
      6.50803929747    2.96109353596    6.50803929747   -2.00000000000
      6.50803929747   -2.96109353596    6.50803929747   -2.00000000000
     -6.50803929747   -2.96109353596    6.50803929747   -2.00000000000
     -6.50803929747    2.96109353596   -6.50803929747   -2.00000000000
      6.50803929747    2.96109353596   -6.50803929747   -2.00000000000
      6.50803929747   -2.96109353596   -6.50803929747   -2.00000000000
     -6.50803929747   -2.96109353596   -6.50803929747   -2.00000000000
     -0.00000000000    8.88328060789    3.96385643712   -2.00000000000
     -0.00000000000   -8.88328060789    3.96385643712   -2.00000000000
     -9.76205894620    0.00000000000    0.70983678838   -2.00000000000
      9.76205894620    0.00000000000    0.70983678838   -2.00000000000
     -9.76205894620    0.00000000000   -1.27209143018    4.00000000000
      9.76205894620    0.00000000000   -1.27209143018    4.00000000000
     -3.25401964873    5.92218707193    7.21787608585   -2.00000000000
      3.25401964873    5.92218707193    7.21787608585   -2.00000000000
      3.25401964873   -5.92218707193    7.21787608585   -2.00000000000
     -3.25401964873   -5.92218707193    7.21787608585   -2.00000000000
     -6.50803929747    5.92218707193   -4.52611107891    4.00000000000
      6.50803929747    5.92218707193   -4.52611107891    4.00000000000
      6.50803929747   -5.92218707193   -4.52611107891    4.00000000000
     -6.50803929747   -5.92218707193   -4.52611107891    4.00000000000
     -6.50803929747    7.40273383991   -1.27209143018    4.00000000000
      6.50803929747    7.40273383991   -1.27209143018    4.00000000000
      6.50803929747   -7.40273383991   -1.27209143018    4.00000000000
     -6.50803929747   -7.40273383991   -1.27209143018    4.00000000000
      0.00000000000    8.88328060789   -4.52611107891    4.00000000000
      0.00000000000   -8.88328060789   -4.52611107891    4.00000000000
     -3.25401964873    8.88328060789    3.25401964873   -2.00000000000
      3.25401964873    8.88328060789    3.25401964873   -2.00000000000
      3.25401964873   -8.88328060789    3.25401964873   -2.00000000000
     -3.25401964873   -8.88328060789    3.25401964873   -2.00000000000
     -3.25401964873    8.88328060789   -3.25401964873   -2.00000000000
      3.25401964873    8.88328060789   -3.25401964873   -2.00000000000
      3.25401964873   -8.88328060789   -3.25401964873   -2.00000000000
     -3.25401964873   -8.88328060789   -3.25401964873   -2.00000000000
     -7.78013072764    4.44164030394   -4.52611107891   -2.00000000000
      7.78013072764    4.44164030394   -4.52611107891   -2.00000000000
      7.78013072764   -4.44164030394   -4.52611107891   -2.00000000000
     -7.78013072764   -4.44164030394   -4.52611107891   -2.00000000000
     -4.52611107891    4.44164030394   -7.78013072764   -2.00000000000
      4.52611107891    4.44164030394   -7.78013072764   -2.00000000000
      4.52611107891   -4.44164030394   -7.78013072764   -2.00000000000
     -4.52611107891   -4.44164030394   -7.78013072764   -2.00000000000
     -9.76205894620    1.48054676798    1.98192821856    4.00000000000
      9.76205894620    1.48054676798    1.98192821856    4.00000000000
      9.76205894620   -1.48054676798    1.98192821856    4.00000000000
     -9.76205894620   -1.48054676798    1.98192821856    4.00000000000
     -5.23594786729    1.48054676798    8.48996751602   -2.00000000000
      5.23594786729    1.48054676798    8.48996751602   -2.00000000000
      5.23594786729   -1.48054676798    8.48996751602   -2.00000000000
     -5.23594786729   -1.48054676798    8.48996751602   -2.00000000000
     -8.48996751602    1.48054676798    5.23594786729   -2.00000000000
      8.48996751602    1.48054676798    5.23594786729   -2.00000000000
      8.48996751602   -1.48054676798    5.23594786729   -2.00000000000
     -8.48996751602   -1.48054676798    5.23594786729   -2.00000000000
     -3.25401964873    4.44164030394    8.48996751602    4.00000000000
      3.25401964873    4.44164030394    8.48996751602    4.00000000000
      3.25401964873   -4.44164030394    8.48996751602    4.00000000000
     -3.25401964873   -4.44164030394    8.48996751602    4.00000000000
     -4.52611107891    7.40273383991    5.23594786729   -2.00000000000
      4.52611107891    7.40273383991    5.23594786729   -2.00000000000
      4.52611107891   -7.40273383991    5.23594786729   -2.00000000000
     -4.52611107891   -7.40273383991    5.23594786729   -2.00000000000
     -5.23594786729    7.40273383991   -4.52611107891   -2.00000000000
      5.23594786729    7.40273383991   -4.52611107891   -2.00000000000
      5.23594786729   -7.40273383991   -4.52611107891   -2.00000000000
     -5.23594786729   -7.40273383991   -4.52611107891   -2.00000000000
     -9.76205894620    2.96109353596    0.70983678838   -2.00000000000
      9.76205894620    2.96109353596    0.70983678838   -2.00000000000
      9.76205894620   -2.96109353596    0.70983678838   -2.00000000000
     -9.76205894620   -2.96109353596    0.70983678838   -2.00000000000
     -6.50803929747    1.48054676798   -7.78013072764    4.00000000000
      6.50803929747    1.48054676798   -7.78013072764    4.00000000000
      6.50803929747   -1.48054676798   -7.78013072764    4.00000000000
     -6.50803929747   -1.48054676798   -7.78013072764    4.00000000000
     -9.76205894620    2.96109353596   -1.27209143018    4.00000000000
      9.76205894620    2.96109353596   -1.27209143018    4.00000000000
      9.76205894620   -2.96109353596   -1.27209143018    4.00000000000
     -9.76205894620   -2.96109353596   -1.27209143018    4.00000000000
     -3.25401964873    0.00000000000    9.76205894620   -2.00000000000
      3.25401964873    0.00000000000    9.76205894620   -2.00000000000
     -9.76205894620    0.00000000000    3.25401964873   -2.00000000000
      9.76205894620    0.00000000000    3.25401964873   -2.00000000000
     -9.76205894620    0.00000000000   -3.25401964873   -2.00000000000
      9.76205894620    0.00000000000   -3.25401964873   -2.00000000000
     -3.25401964873    0.00000000000   -9.76205894620   -2.00000000000
      3.25401964873    0.00000000000   -9.76205894620   -2.00000000000
     -3.25401964873    5.92218707193   -7.78013072764    4.00000000000
      3.25401964873    5.92218707193   -7.78013072764    4.00000000000
      3.25401964873   -5.92218707193   -7.78013072764    4.00000000000
     -3.25401964873   -5.92218707193   -7.78013072764    4.00000000000
      0.00000000000    5.92218707193    8.48996751602    4.00000000000
      0.00000000000   -5.92218707193    8.48996751602    4.00000000000
      0.00000000000   10.36382737587   -1.27209143018    4.00000000000
      0.00000000000  -10.36382737587   -1.27209143018    4.00000000000
     -0.00000000000    0.00000000000   10.47189573458   -2.00000000000
     -1.27209143018   10.36382737587    1.98192821856   -2.00000000000
      1.27209143018   10.36382737587    1.98192821856   -2.00000000000
      1.27209143018  -10.36382737587    1.98192821856   -2.00000000000
     -1.27209143018  -10.36382737587    1.98192821856   -2.00000000000
     -1.98192821856   10.36382737587   -1.27209143018   -2.00000000000
      1.98192821856   10.36382737587   -1.27209143018   -2.00000000000
      1.98192821856  -10.36382737587   -1.27209143018   -2.00000000000
     -1.98192821856  -10.36382737587   -1.27209143018   -2.00000000000
     -6.50803929747    0.00000000000    8.48996751602    4.00000000000
      6.50803929747    0.00000000000    8.48996751602    4.00000000000
     -3.25401964873    2.96109353596    9.76205894620   -2.00000000000
      3.25401964873    2.96109353596    9.76205894620   -2.00000000000
      3.25401964873   -2.96109353596    9.76205894620   -2.00000000000
     -3.25401964873   -2.96109353596    9.76205894620   -2.00000000000
     -9.76205894620    2.96109353596    3.25401964873   -2.00000000000
      9.76205894620    2.96109353596    3.25401964873   -2.00000000000
      9.76205894620   -2.96109353596    3.25401964873   -2.00000000000
     -9.76205894620   -2.96109353596    3.25401964873   -2.00000000000
     -9.76205894620    2.96109353596   -3.25401964873   -2.00000000000
      9.76205894620    2.96109353596   -3.25401964873   -2.00000000000
      9.76205894620   -2.96109353596   -3.25401964873   -2.00000000000
     -9.76205894620   -2.96109353596   -3.25401964873   -2.00000000000
      0.00000000000    7.40273383991   -7.78013072764    4.00000000000
      0.00000000000   -7.40273383991   -7.78013072764    4.00000000000
     -3.25401964873    8.88328060789    5.23594786729    4.00000000000
      3.25401964873    8.88328060789    5.23594786729    4.00000000000
      3.25401964873   -8.88328060789    5.23594786729    4.00000000000
     -3.25401964873   -8.88328060789    5.23594786729    4.00000000000
     -9.76205894620    1.48054676798   -4.52611107891    4.00000000000
      9.76205894620    1.48054676798   -4.52611107891    4.00000000000
      9.76205894620   -1.48054676798   -4.52611107891    4.00000000000
     -9.76205894620   -1.48054676798   -4.52611107891    4.00000000000
     -0.00000000000    2.96109353596   10.47189573458   -2.00000000000
     -0.00000000000   -2.96109353596   10.47189573458   -2.00000000000
     -9.76205894620    4.44164030394    1.98192821856    4.00000000000
      9.76205894620    4.44164030394    1.98192821856    4.00000000000
      9.76205894620   -4.44164030394    1.98192821856    4.00000000000
     -9.76205894620   -4.44164030394    1.98192821856    4.00000000000
     -5.23594786729    4.44164030394    8.48996751602   -2.00000000000
      5.23594786729    4.44164030394    8.48996751602   -2.00000000000
      5.23594786729   -4.44164030394    8.48996751602   -2.00000000000
     -5.23594786729   -4.44164030394    8.48996751602   -2.00000000000
     -8.48996751602    4.44164030394    5.23594786729   -2.00000000000
      8.48996751602    4.44164030394    5.23594786729   -2.00000000000
      8.48996751602   -4.44164030394    5.23594786729   -2.00000000000
     -8.48996751602   -4.44164030394    5.23594786729   -2.00000000000
     -7.78013072764    7.40273383991    1.98192821856   -2.00000000000
      7.78013072764    7.40273383991    1.98192821856   -2.00000000000
      7.78013072764   -7.40273383991    1.98192821856   -2.00000000000
     -7.78013072764   -7.40273383991    1.98192821856   -2.00000000000
     -6.50803929747    5.92218707193    6.50803929747   -2.00000000000
      6.50803929747    5.92218707193    6.50803929747   -2.00000000000
      6.50803929747   -5.92218707193    6.50803929747   -2.00000000000
     -6.50803929747   -5.92218707193    6.50803929747   -2.00000000000
      0.00000000000    8.88328060789    6.50803929747   -2.00000000000
      0.00000000000   -8.88328060789    6.50803929747   -2.00000000000
     -6.50803929747    8.88328060789    0.00000000000   -2.00000000000
      6.50803929747    8.88328060789    0.00000000000   -2.00000000000
      6.50803929747   -8.88328060789    0.00000000000   -2.00000000000
     -6.50803929747   -8.88328060789    0.00000000000   -2.00000000000
     -3.25401964873   10.36382737587    1.98192821856    4.00000000000
      3.25401964873   10.36382737587    1.98192821856    4.00000000000
      3.25401964873  -10.36382737587    1.98192821856    4.00000000000
     -3.25401964873  -10.36382737587    1.98192821856    4.00000000000
     -9.76205894620    0.00000000000    5.23594786729    4.00000000000
      9.76205894620    0.00000000000    5.23594786729    4.00000000000
     -6.50803929747    2.96109353596    8.48996751602    4.00000000000
      6.50803929747    2.96109353596    8.48996751602    4.00000000000
      6.50803929747   -2.96109353596    8.48996751602    4.00000000000
     -6.50803929747   -2.96109353596    8.48996751602    4.00000000000
     -6.50803929747    0.00000000000   -9.05222215782   -2.00000000000
      6.50803929747    0.00000000000   -9.05222215782   -2.00000000000
     -6.50803929747    7.40273383991    5.23594786729    4.00000000000
      6.50803929747    7.40273383991    5.23594786729    4.00000000000
      6.50803929747   -7.40273383991    5.23594786729    4.00000000000
     -6.50803929747   -7.40273383991    5.23594786729    4.00000000000
     -6.50803929747    8.88328060789    1.98192821856    4.00000000000
      6.50803929747    8.88328060789    1.98192821856    4.00000000000
      6.50803929747   -8.88328060789    1.98192821856    4.00000000000
     -6.50803929747   -8.88328060789    1.98192821856    4.00000000000
    -11.03415037637    1.48054676798   -1.27209143018   -2.00000000000
     11.03415037637    1.48054676798   -1.27209143018   -2.00000000000
     11.03415037637   -1.48054676798   -1.27209143018   -2.00000000000
    -11.03415037637   -1.48054676798   -1.27209143018   -2.00000000000
     -1.27209143018    7.40273383991    8.48996751602   -2.00000000000
      1.27209143018    7.40273383991    8.48996751602   -2.00000000000
      1.27209143018   -7.40273383991    8.48996751602   -2.00000000000
     -1.27209143018   -7.40273383991    8.48996751602   -2.00000000000
     -9.76205894620    0.00000000000   -5.79820250908   -2.00000000000
      9.76205894620    0.00000000000   -5.79820250908   -2.00000000000
     -9.76205894620    5.92218707193    0.70983678838   -2.00000000000
      9.76205894620    5.92218707193    0.70983678838   -2.00000000000
      9.76205894620   -5.92218707193    0.70983678838   -2.00000000000
     -9.76205894620   -5.92218707193    0.70983678838   -2.00000000000
     -9.76205894620    2.96109353596    5.23594786729    4.00000000000
      9.76205894620    2.96109353596    5.23594786729    4.00000000000
      9.76205894620   -2.96109353596    5.23594786729    4.00000000000
     -9.76205894620   -2.96109353596    5.23594786729    4.00000000000
     -9.76205894620    5.92218707193   -1.27209143018    4.00000000000
      9.76205894620    5.92218707193   -1.27209143018    4.00000000000
      9.76205894620   -5.92218707193   -1.27209143018    4.00000000000
     -9.76205894620   -5.92218707193   -1.27209143018    4.00000000000
     -7.78013072764    1.48054676798    8.48996751602   -2.00000000000
      7.78013072764    1.48054676798    8.48996751602   -2.00000000000
      7.78013072764   -1.48054676798    8.48996751602   -2.00000000000
     -7.78013072764   -1.48054676798    8.48996751602   -2.00000000000
      0.00000000000   10.36382737587    5.23594786729    4.00000000000
      0.00000000000  -10.36382737587    5.23594786729    4.00000000000
     -9.76205894620    4.44164030394   -4.52611107891    4.00000000000
      9.76205894620    4.44164030394   -4.52611107891    4.00000000000
      9.76205894620   -4.44164030394   -4.52611107891    4.00000000000
     -9.76205894620   -4.44164030394   -4.52611107891    4.00000000000
     -6.50803929747    8.88328060789    3.96385643712   -2.00000000000
      6.50803929747    8.88328060789    3.96385643712   -2.00000000000
      6.50803929747   -8.88328060789    3.96385643712   -2.00000000000
     -6.50803929747   -8.88328060789    3.96385643712   -2.00000000000
     -3.25401964873    7.40273383991    8.48996751602    4.00000000000
      3.25401964873    7.40273383991    8.48996751602    4.00000000000
      3.25401964873   -7.40273383991    8.48996751602    4.00000000000
     -3.25401964873   -7.40273383991    8.48996751602    4.00000000000
     -1.98192821856   10.36382737587    5.23594786729   -2.00000000000
      1.98192821856   10.36382737587    5.23594786729   -2.00000000000
      1.98192821856  -10.36382737587    5.23594786729   -2.00000000000
     -1.98192821856  -10.36382737587    5.23594786729   -2.00000000000
     -9.76205894620    5.92218707193    3.25401964873   -2.00000000000
      9.76205894620    5.92218707193    3.25401964873   -2.00000000000
      9.76205894620   -5.92218707193    3.25401964873   -2.00000000000
     -9.76205894620   -5.92218707193    3.25401964873   -2.00000000000
    -11.74398716476    1.48054676798    1.98192821856   -2.00000000000
     11.74398716476    1.48054676798    1.98192821856   -2.00000000000
     11.74398716476   -1.48054676798    1.98192821856   -2.00000000000
    -11.74398716476   -1.48054676798    1.98192821856   -2.00000000000
     -6.50803929747    5.92218707193    8.48996751602    4.00000000000
      6.50803929747    5.92218707193    8.48996751602    4.00000000000
      6.50803929747   -5.92218707193    8.48996751602    4.00000000000
     -6.50803929747   -5.92218707193    8.48996751602    4.00000000000
    -11.03415037637    1.48054676798    5.23594786729   -2.00000000000
     11.03415037637    1.48054676798    5.23594786729   -2.00000000000
     11.03415037637   -1.48054676798    5.23594786729   -2.00000000000
    -11.03415037637   -1.48054676798    5.23594786729   -2.00000000000
     -3.25401964873    2.96109353596   -9.76205894620   -2.00000000000
      3.25401964873    2.96109353596   -9.76205894620   -2.00000000000
      3.25401964873   -2.96109353596   -9.76205894620   -2.00000000000
     -3.25401964873   -2.96109353596   -9.76205894620   -2.00000000000
     -0.00000000000    5.92218707193   -9.05222215782   -2.00000000000
     -0.00000000000   -5.92218707193   -9.05222215782   -2.00000000000
     -1.98192821856    7.40273383991   -7.78013072764   -2.00000000000
      1.98192821856    7.40273383991   -7.78013072764   -2.00000000000
      1.98192821856   -7.40273383991   -7.78013072764   -2.00000000000
     -1.98192821856   -7.40273383991   -7.78013072764   -2.00000000000
     -6.50803929747    5.92218707193   -6.50803929747   -2.00000000000
      6.50803929747    5.92218707193   -6.50803929747   -2.00000000000
      6.50803929747   -5.92218707193   -6.50803929747   -2.00000000000
     -6.50803929747   -5.92218707193   -6.50803929747   -2.00000000000
      0.00000000000    8.88328060789   -6.50803929747   -2.00000000000
      0.00000000000   -8.88328060789   -6.50803929747   -2.00000000000
      0.00000000000    0.00000000000  -11.03415037637    4.00000000000
     -6.50803929747    4.44164030394   -7.78013072764    4.00000000000
      6.50803929747    4.44164030394   -7.78013072764    4.00000000000
      6.50803929747   -4.44164030394   -7.78013072764    4.00000000000
     -6.50803929747   -4.44164030394   -7.78013072764    4.00000000000
     -3.25401964873    8.88328060789   -5.79820250908   -2.00000000000
      3.25401964873    8.88328060789   -5.79820250908   -2.00000000000
      3.25401964873   -8.88328060789   -5.79820250908   -2.00000000000
     -3.25401964873   -8.88328060789   -5.79820250908   -2.00000000000
     -1.27209143018    1.48054676798  -11.03415037637   -2.00000000000
      1.27209143018    1.48054676798  -11.03415037637   -2.00000000000
      1.27209143018   -1.48054676798  -11.03415037637   -2.00000000000
     -1.27209143018   -1.48054676798  -11.03415037637   -2.00000000000
     -6.50803929747    8.88328060789   -2.54418286035   -2.00000000000
      6.50803929747    8.88328060789   -2.54418286035   -2.00000000000
      6.50803929747   -8.88328060789   -2.54418286035   -2.00000000000
     -6.50803929747   -8.88328060789   -2.54418286035   -2.00000000000
     -8.48996751602    7.40273383991   -1.27209143018   -2.00000000000
      8.48996751602    7.40273383991   -1.27209143018   -2.00000000000
      8.48996751602   -7.40273383991   -1.27209143018   -2.00000000000
     -8.48996751602   -7.40273383991   -1.27209143018   -2.00000000000
     -4.52611107891   10.36382737587   -1.27209143018   -2.00000000000
      4.52611107891   10.36382737587   -1.27209143018   -2.00000000000
      4.52611107891  -10.36382737587   -1.27209143018   -2.00000000000
     -4.52611107891  -10.36382737587   -1.27209143018   -2.00000000000
     -1.27209143018   10.36382737587   -4.52611107891   -2.00000000000
      1.27209143018   10.36382737587   -4.52611107891   -2.00000000000
      1.27209143018  -10.36382737587   -4.52611107891   -2.00000000000
     -1.27209143018  -10.36382737587   -4.52611107891   -2.00000000000
      0.00000000000    2.96109353596  -11.03415037637    4.00000000000
      0.00000000000   -2.96109353596  -11.03415037637    4.00000000000
     -6.50803929747    2.96109353596   -9.05222215782   -2.00000000000
      6.50803929747    2.96109353596   -9.05222215782   -2.00000000000
      6.50803929747   -2.96109353596   -9.05222215782   -2.00000000000
     -6.50803929747   -2.96109353596   -9.05222215782   -2.00000000000
     -3.25401964873    1.48054676798  -11.03415037637    4.00000000000
      3.25401964873    1.48054676798  -11.03415037637    4.00000000000
      3.25401964873   -1.48054676798  -11.03415037637    4.00000000000
     -3.25401964873   -1.48054676798  -11.03415037637    4.00000000000
     -8.48996751602    1.48054676798   -7.78013072764   -2.00000000000
      8.48996751602    1.48054676798   -7.78013072764   -2.00000000000
      8.48996751602   -1.48054676798   -7.78013072764   -2.00000000000
     -8.48996751602   -1.48054676798   -7.78013072764   -2.00000000000
     -7.78013072764    7.40273383991   -4.52611107891   -2.00000000000
      7.78013072764    7.40273383991   -4.52611107891   -2.00000000000
      7.78013072764   -7.40273383991   -4.52611107891   -2.00000000000
     -7.78013072764   -7.40273383991   -4.52611107891   -2.00000000000
     -4.52611107891    7.40273383991   -7.78013072764   -2.00000000000
      4.52611107891    7.40273383991   -7.78013072764   -2.00000000000
      4.52611107891   -7.40273383991   -7.78013072764   -2.00000000000
     -4.52611107891   -7.40273383991   -7.78013072764   -2.00000000000
     -9.76205894620    2.96109353596   -5.79820250908   -2.00000000000
      9.76205894620    2.96109353596   -5.79820250908   -2.00000000000
      9.76205894620   -2.96109353596   -5.79820250908   -2.00000000000
     -9.76205894620   -2.96109353596   -5.79820250908   -2.00000000000
     -3.25401964873   10.36382737587   -4.52611107891    4.00000000000
      3.25401964873   10.36382737587   -4.52611107891    4.00000000000
      3.25401964873  -10.36382737587   -4.52611107891    4.00000000000
     -3.25401964873  -10.36382737587   -4.52611107891    4.00000000000
     -5.23594786729   10.36382737587    1.98192821856   -2.00000000000
      5.23594786729   10.36382737587    1.98192821856   -2.00000000000
      5.23594786729  -10.36382737587    1.98192821856   -2.00000000000
     -5.23594786729  -10.36382737587    1.98192821856   -2.00000000000
      0.00000000000    1.48054676798   11.74398716476    4.00000000000
      0.00000000000   -1.48054676798   11.74398716476    4.00000000000
      0.00000000000   11.84437414385    0.00000000000   -2.00000000000
      0.00000000000  -11.84437414385    0.00000000000   -2.00000000000
     -3.25401964873    5.92218707193    9.76205894620   -2.00000000000
      3.25401964873    5.92218707193    9.76205894620   -2.00000000000
      3.25401964873   -5.92218707193    9.76205894620   -2.00000000000
     -3.25401964873   -5.92218707193    9.76205894620   -2.00000000000
     -9.76205894620    5.92218707193   -3.25401964873   -2.00000000000
      9.76205894620    5.92218707193   -3.25401964873   -2.00000000000
      9.76205894620   -5.92218707193   -3.25401964873   -2.00000000000
     -9.76205894620   -5.92218707193   -3.25401964873   -2.00000000000
     -3.25401964873    5.92218707193   -9.76205894620   -2.00000000000
      3.25401964873    5.92218707193   -9.76205894620   -2.00000000000
      3.25401964873   -5.92218707193   -9.76205894620   -2.00000000000
     -3.25401964873   -5.92218707193   -9.76205894620   -2.00000000000
     -3.25401964873    8.88328060789    7.21787608585   -2.00000000000
      3.25401964873    8.88328060789    7.21787608585   -2.00000000000
      3.25401964873   -8.88328060789    7.21787608585   -2.00000000000
     -3.25401964873   -8.88328060789    7.21787608585   -2.00000000000
     -6.50803929747    8.88328060789   -4.52611107891    4.00000000000
      6.50803929747    8.88328060789   -4.52611107891    4.00000000000
      6.50803929747   -8.88328060789   -4.52611107891    4.00000000000
     -6.50803929747   -8.88328060789   -4.52611107891    4.00000000000
    -11.03415037637    4.44164030394   -1.27209143018   -2.00000000000
     11.03415037637    4.44164030394   -1.27209143018   -2.00000000000
     11.03415037637   -4.44164030394   -1.27209143018   -2.00000000000
    -11.03415037637   -4.44164030394   -1.27209143018   -2.00000000000
     -1.27209143018    4.44164030394  -11.03415037637   -2.00000000000
      1.27209143018    4.44164030394  -11.03415037637   -2.00000000000
      1.27209143018   -4.44164030394  -11.03415037637   -2.00000000000
     -1.27209143018   -4.44164030394  -11.03415037637   -2.00000000000
     -1.98192821856    1.48054676798   11.74398716476   -2.00000000000
      1.98192821856    1.48054676798   11.74398716476   -2.00000000000
      1.98192821856   -1.48054676798   11.74398716476   -2.00000000000
     -1.98192821856   -1.48054676798   11.74398716476   -2.00000000000
      0.00000000000   11.84437414385    1.98192821856    4.00000000000
      0.00000000000  -11.84437414385    1.98192821856    4.00000000000
     -0.00000000000    5.92218707193   10.47189573458   -2.00000000000
     -0.00000000000   -5.92218707193   10.47189573458   -2.00000000000
     -0.00000000000   11.84437414385   -2.54418286035   -2.00000000000
     -0.00000000000  -11.84437414385   -2.54418286035   -2.00000000000
     -9.76205894620    0.00000000000    7.21787608585   -2.00000000000
      9.76205894620    0.00000000000    7.21787608585   -2.00000000000
     -3.25401964873    0.00000000000   11.74398716476    4.00000000000
      3.25401964873    0.00000000000   11.74398716476    4.00000000000
     -3.25401964873    8.88328060789   -7.78013072764    4.00000000000
      3.25401964873    8.88328060789   -7.78013072764    4.00000000000
      3.25401964873   -8.88328060789   -7.78013072764    4.00000000000
     -3.25401964873   -8.88328060789   -7.78013072764    4.00000000000
      0.00000000000    8.88328060789    8.48996751602    4.00000000000
      0.00000000000   -8.88328060789    8.48996751602    4.00000000000
     -5.23594786729    1.48054676798  -11.03415037637   -2.00000000000
      5.23594786729    1.48054676798  -11.03415037637   -2.00000000000
      5.23594786729   -1.48054676798  -11.03415037637   -2.00000000000
     -5.23594786729   -1.48054676798  -11.03415037637   -2.00000000000
     -3.25401964873   11.84437414385    0.70983678838   -2.00000000000
      3.25401964873   11.84437414385    0.70983678838   -2.00000000000
      3.25401964873  -11.84437414385    0.70983678838   -2.00000000000
     -3.25401964873  -11.84437414385    0.70983678838   -2.00000000000
     -6.50803929747   10.36382737587   -1.27209143018    4.00000000000
      6.50803929747   10.36382737587   -1.27209143018    4.00000000000
      6.50803929747  -10.36382737587   -1.27209143018    4.00000000000
     -6.50803929747  -10.36382737587   -1.27209143018    4.00000000000
     -6.50803929747    0.00000000000   10.47189573458   -2.00000000000
      6.50803929747    0.00000000000   10.47189573458   -2.00000000000
     -3.25401964873    4.44164030394  -11.03415037637    4.00000000000
      3.25401964873    4.44164030394  -11.03415037637    4.00000000000
      3.25401964873   -4.44164030394  -11.03415037637    4.00000000000
     -3.25401964873   -4.44164030394  -11.03415037637    4.00000000000
     -7.78013072764    4.44164030394    8.48996751602   -2.00000000000
      7.78013072764    4.44164030394    8.48996751602   -2.00000000000
      7.78013072764   -4.44164030394    8.48996751602   -2.00000000000
     -7.78013072764   -4.44164030394    8.48996751602   -2.00000000000
     -8.48996751602    4.44164030394   -7.78013072764   -2.00000000000
      8.48996751602    4.44164030394   -7.78013072764   -2.00000000000
      8.48996751602   -4.44164030394   -7.78013072764   -2.00000000000
     -8.48996751602   -4.44164030394   -7.78013072764   -2.00000000000
     -3.25401964873   11.84437414385   -1.27209143018    4.00000000000
      3.25401964873   11.84437414385   -1.27209143018    4.00000000000
      3.25401964873  -11.84437414385   -1.27209143018    4.00000000000
     -3.25401964873  -11.84437414385   -1.27209143018    4.00000000000
     -9.76205894620    7.40273383991    1.98192821856    4.00000000000
      9.76205894620    7.40273383991    1.98192821856    4.00000000000
      9.76205894620   -7.40273383991    1.98192821856    4.00000000000
     -9.76205894620   -7.40273383991    1.98192821856    4.00000000000
     -5.23594786729    7.40273383991    8.48996751602   -2.00000000000
      5.23594786729    7.40273383991    8.48996751602   -2.00000000000
      5.23594786729   -7.40273383991    8.48996751602   -2.00000000000
     -5.23594786729   -7.40273383991    8.48996751602   -2.00000000000
     -8.48996751602    7.40273383991    5.23594786729   -2.00000000000
      8.48996751602    7.40273383991    5.23594786729   -2.00000000000
      8.48996751602   -7.40273383991    5.23594786729   -2.00000000000
     -8.48996751602   -7.40273383991    5.23594786729   -2.00000000000
     -4.52611107891   10.36382737587    5.23594786729   -2.00000000000
      4.52611107891   10.36382737587    5.23594786729   -2.00000000000
      4.52611107891  -10.36382737587    5.23594786729   -2.00000000000
     -4.52611107891  -10.36382737587    5.23594786729   -2.00000000000
     -5.23594786729   10.36382737587   -4.52611107891   -2.00000000000
      5.23594786729   10.36382737587   -4.52611107891   -2.00000000000
      5.23594786729  -10.36382737587   -4.52611107891   -2.00000000000
     -5.23594786729  -10.36382737587   -4.52611107891   -2.00000000000
     -9.76205894620    0.00000000000   -7.78013072764    4.00000000000
      9.76205894620    0.00000000000   -7.78013072764    4.00000000000
     -0.00000000000   11.84437414385    3.96385643712   -2.00000000000
     -0.00000000000  -11.84437414385    3.96385643712   -2.00000000000
     -9.76205894620    2.96109353596    7.21787608585   -2.00000000000
      9.76205894620    2.96109353596    7.21787608585   -2.00000000000
      9.76205894620   -2.96109353596    7.21787608585   -2.00000000000
     -9.76205894620   -2.96109353596    7.21787608585   -2.00000000000
      0.00000000000    5.92218707193  -11.03415037637    4.00000000000
      0.00000000000   -5.92218707193  -11.03415037637    4.00000000000
     -3.25401964873    2.96109353596   11.74398716476    4.00000000000
      3.25401964873    2.96109353596   11.74398716476    4.00000000000
      3.25401964873   -2.96109353596   11.74398716476    4.00000000000
     -3.25401964873   -2.96109353596   11.74398716476    4.00000000000
      0.00000000000    4.44164030394   11.74398716476    4.00000000000
      0.00000000000   -4.44164030394   11.74398716476    4.00000000000
     -6.50803929747    7.40273383991   -7.78013072764    4.00000000000
      6.50803929747    7.40273383991   -7.78013072764    4.00000000000
      6.50803929747   -7.40273383991   -7.78013072764    4.00000000000
     -6.50803929747   -7.40273383991   -7.78013072764    4.00000000000
     -9.76205894620    5.92218707193    5.23594786729    4.00000000000
      9.76205894620    5.92218707193    5.23594786729    4.00000000000
      9.76205894620   -5.92218707193    5.23594786729    4.00000000000
     -9.76205894620   -5.92218707193    5.23594786729    4.00000000000
     -6.50803929747    5.92218707193   -9.05222215782   -2.00000000000
      6.50803929747    5.92218707193   -9.05222215782   -2.00000000000
      6.50803929747   -5.92218707193   -9.05222215782   -2.00000000000
     -6.50803929747   -5.92218707193   -9.05222215782   -2.00000000000
     -4.52611107891    1.48054676798   11.74398716476   -2.00000000000
      4.52611107891    1.48054676798   11.74398716476   -2.00000000000
      4.52611107891   -1.48054676798   11.74398716476   -2.00000000000
     -4.52611107891   -1.48054676798   11.74398716476   -2.00000000000
    -11.74398716476    1.48054676798   -4.52611107891   -2.00000000000
     11.74398716476    1.48054676798   -4.52611107891   -2.00000000000
     11.74398716476   -1.48054676798   -4.52611107891   -2.00000000000
    -11.74398716476   -1.48054676798   -4.52611107891   -2.00000000000
      0.00000000000   11.84437414385   -4.52611107891    4.00000000000
      0.00000000000  -11.84437414385   -4.52611107891    4.00000000000
     -6.50803929747    2.96109353596   10.47189573458   -2.00000000000
      6.50803929747    2.96109353596   10.47189573458   -2.00000000000
      6.50803929747   -2.96109353596   10.47189573458   -2.00000000000
     -6.50803929747   -2.96109353596   10.47189573458   -2.00000000000
     -0.00000000000    8.88328060789   -9.05222215782   -2.00000000000
     -0.00000000000   -8.88328060789   -9.05222215782   -2.00000000000
     -3.25401964873   11.84437414385    3.25401964873   -2.00000000000
      3.25401964873   11.84437414385    3.25401964873   -2.00000000000
      3.25401964873  -11.84437414385    3.25401964873   -2.00000000000
     -3.25401964873  -11.84437414385    3.25401964873   -2.00000000000
     -3.25401964873   11.84437414385   -3.25401964873   -2.00000000000
      3.25401964873   11.84437414385   -3.25401964873   -2.00000000000
      3.25401964873  -11.84437414385   -3.25401964873   -2.00000000000
     -3.25401964873  -11.84437414385   -3.25401964873   -2.00000000000
     -1.98192821856    4.44164030394   11.74398716476   -2.00000000000
      1.98192821856    4.44164030394   11.74398716476   -2.00000000000
      1.98192821856   -4.44164030394   11.74398716476   -2.00000000000
     -1.98192821856   -4.44164030394   11.74398716476   -2.00000000000
    -11.74398716476    4.44164030394    1.98192821856   -2.00000000000
     11.74398716476    4.44164030394    1.98192821856   -2.00000000000
     11.74398716476   -4.44164030394    1.98192821856   -2.00000000000
    -11.74398716476   -4.44164030394    1.98192821856   -2.00000000000
     -3.25401964873    0.00000000000  -12.30624180655   -2.00000000000
      3.25401964873    0.00000000000  -12.30624180655   -2.00000000000
     -6.50803929747    8.88328060789    6.50803929747   -2.00000000000
      6.50803929747    8.88328060789    6.50803929747   -2.00000000000
      6.50803929747   -8.88328060789    6.50803929747   -2.00000000000
     -6.50803929747   -8.88328060789    6.50803929747   -2.00000000000
     -6.50803929747    8.88328060789   -6.50803929747   -2.00000000000
      6.50803929747    8.88328060789   -6.50803929747   -2.00000000000
      6.50803929747   -8.88328060789   -6.50803929747   -2.00000000000
     -6.50803929747   -8.88328060789   -6.50803929747   -2.00000000000
     -9.76205894620    5.92218707193   -5.79820250908   -2.00000000000
      9.76205894620    5.92218707193   -5.79820250908   -2.00000000000
      9.76205894620   -5.92218707193   -5.79820250908   -2.00000000000
     -9.76205894620   -5.92218707193   -5.79820250908   -2.00000000000
     -6.50803929747    0.00000000000  -11.03415037637    4.00000000000
      6.50803929747    0.00000000000  -11.03415037637    4.00000000000
     -9.76205894620    2.96109353596   -7.78013072764    4.00000000000
      9.76205894620    2.96109353596   -7.78013072764    4.00000000000
      9.76205894620   -2.96109353596   -7.78013072764    4.00000000000
     -9.76205894620   -2.96109353596   -7.78013072764    4.00000000000
      0.00000000000   10.36382737587   -7.78013072764    4.00000000000
      0.00000000000  -10.36382737587   -7.78013072764    4.00000000000
    -11.03415037637    4.44164030394    5.23594786729   -2.00000000000
     11.03415037637    4.44164030394    5.23594786729   -2.00000000000
     11.03415037637   -4.44164030394    5.23594786729   -2.00000000000
    -11.03415037637   -4.44164030394    5.23594786729   -2.00000000000
     -5.23594786729    4.44164030394  -11.03415037637   -2.00000000000
      5.23594786729    4.44164030394  -11.03415037637   -2.00000000000
      5.23594786729   -4.44164030394  -11.03415037637   -2.00000000000
     -5.23594786729   -4.44164030394  -11.03415037637   -2.00000000000
      0.00000000000    0.00000000000   13.01607859493   -2.00000000000
    -13.01607859493    0.00000000000    0.00000000000   -2.00000000000
     13.01607859493    0.00000000000    0.00000000000   -2.00000000000
      0.00000000000    0.00000000000  -13.01607859493   -2.00000000000
     -9.76205894620    1.48054676798    8.48996751602    4.00000000000
      9.76205894620    1.48054676798    8.48996751602    4.00000000000
[...]
 1580   A          5.236175       5.236175
 1581   A          5.245848       5.245848
 1582   A          5.247817       5.247817
 1583   A          5.249433       5.249433
 1584   A          5.251633       5.251633
 1585   A          5.258637       5.258637
 1586   A          5.264565       5.264565
 1587   A          5.270271       5.270271
 1588   A          5.272930       5.272930
 1589   A          5.279551       5.279551
 1590   A          5.282224       5.282224
 1591   A          5.283455       5.283455
 1592   A          5.284476       5.284476
 1593   A          5.290693       5.290693
 1594   A          5.297199       5.297199
 1595   A          5.299638       5.299638
 1596   A          5.311970       5.311970
 1597   A          5.320901       5.320901
 1598   A          5.329420       5.329420
 1599   A          5.335395       5.335395
 1600   A          5.338088       5.338088
 1601   A          5.343699       5.343699
 1602   A          5.352339       5.352339
 1603   A          5.356907       5.356907
 1604   A          5.365188       5.365188
 1605   A          5.368191       5.368191
 1606   A          5.372394       5.372394
 1607   A          5.377683       5.377683
 1608   A          5.378572       5.378572
 1609   A          5.386349       5.386349
 1610   A          5.392134       5.392134
 1611   A          5.400254       5.400254
 1612   A          5.402040       5.402040
 1613   A          5.402406       5.402406
 1614   A          5.405154       5.405154
 1615   A          5.407742       5.407742
 1616   A          5.410357       5.410357
 1617   A          5.415098       5.415098
 1618   A          5.423753       5.423753
 1619   A          5.427797       5.427797
 1620   A          5.443849       5.443849
 1621   A          5.447960       5.447960
 1622   A          5.452081       5.452081
 1623   A          5.458166       5.458166
 1624   A          5.462447       5.462447
 1625   A          5.466934       5.466934
 1626   A          5.469149       5.469149
 1627   A          5.472659       5.472659
 1628   A          5.473631       5.473631
 1629   A          5.474350       5.474350
 1630   A          5.478548       5.478548
 1631   A          5.481438       5.481438
 1632   A          5.489458       5.489458
 1633   A          5.493029       5.493029
 1634   A          5.493599       5.493599
 1635   A          5.499702       5.499702
 1636   A          5.501982       5.501982
 1637   A          5.505119       5.505119
 1638   A          5.510597       5.510597
 1639   A          5.513595       5.513595
 1640   A          5.515334       5.515334
 1641   A          5.519564       5.519564
 1642   A          5.524379       5.524379
 1643   A          5.525398       5.525398
 1644   A          5.527598       5.527598
 1645   A          5.532254       5.532254
 1646   A          5.535204       5.535204
 1647   A          5.540231       5.540231
 1648   A          5.542753       5.542753
 1649   A          5.551722       5.551722
 1650   A          5.555017       5.555017
 1651   A          5.559124       5.559124
 1652   A          5.560826       5.560826
 1653   A          5.565412       5.565412
 1654   A          5.567475       5.567475
 1655   A          5.576176       5.576176
 1656   A          5.576557       5.576557
 1657   A          5.578295       5.578295
 1658   A          5.582560       5.582560
 1659   A          5.586480       5.586480
 1660   A          5.597258       5.597258
 1661   A          5.600457       5.600457
 1662   A          5.603799       5.603799
 1663   A          5.604514       5.604514
 1664   A          5.605125       5.605125
 1665   A          5.612123       5.612123
 1666   A          5.617972       5.617972
 1667   A          5.625358       5.625358
 1668   A          5.629798       5.629798
 1669   A          5.633951       5.633951
 1670   A          5.639827       5.639827
 1671   A          5.644478       5.644478
 1672   A          5.648732       5.648732
 1673   A          5.651798       5.651798
 1674   A          5.656095       5.656095
 1675   A          5.662159       5.662159
 1676   A          5.667101       5.667101
 1677   A          5.670613       5.670613
 1678   A          5.672696       5.672696
 1679   A          5.676503       5.676503
 1680   A          5.684497       5.684497
 1681   A          5.688797       5.688797
 1682   A          5.695566       5.695566
 1683   A          5.699184       5.699184
 1684   A          5.702505       5.702505
 1685   A          5.705074       5.705074
 1686   A          5.710005       5.710005
 1687   A          5.716395       5.716395
 1688   A          5.720244       5.720244
 1689   A          5.721862       5.721862
 1690   A          5.724577       5.724577
 1691   A          5.728665       5.728665
 1692   A          5.730743       5.730743
 1693   A          5.731689       5.731689
 1694   A          5.734799       5.734799
 1695   A          5.736911       5.736911
 1696   A          5.739429       5.739429
 1697   A          5.741004       5.741004
 1698   A          5.741758       5.741758
 1699   A          5.744318       5.744318
 1700   A          5.749181       5.749181
 1701   A          5.751485       5.751485
 1702   A          5.754727       5.754727
 1703   A          5.755932       5.755932
 1704   A          5.759664       5.759664
 1705   A          5.765401       5.765401
 1706   A          5.768894       5.768894
 1707   A          5.771269       5.771269
 1708   A          5.774864       5.774864
 1709   A          5.779850       5.779850
 1710   A          5.782192       5.782192
 1711   A          5.784981       5.784981
 1712   A          5.792076       5.792076
 1713   A          5.794478       5.794478
 1714   A          5.795542       5.795542
 1715   A          5.797682       5.797682
 1716   A          5.798379       5.798379
 1717   A          5.801260       5.801260
 1718   A          5.805279       5.805279
 1719   A          5.807491       5.807491
 1720   A          5.810449       5.810449
 1721   A          5.814812       5.814812
 1722   A          5.818289       5.818289
 1723   A          5.821194       5.821194
 1724   A          5.824237       5.824237
 1725   A          5.828260       5.828260
 1726   A          5.833296       5.833296
 1727   A          5.835529       5.835529
 1728   A          5.838462       5.838462
 1729   A          5.841912       5.841912
 1730   A          5.851921       5.851921
 1731   A          5.854685       5.854685
 1732   A          5.859805       5.859805
 1733   A          5.864448       5.864448
 1734   A          5.865064       5.865064
 1735   A          5.866521       5.866521
 1736   A          5.872953       5.872953
 1737   A          5.877930       5.877930
 1738   A          5.881720       5.881720
 1739   A          5.883591       5.883591
 1740   A          5.891156       5.891156
 1741   A          5.899499       5.899499
 1742   A          5.901675       5.901675
 1743   A          5.910094       5.910094
 1744   A          5.915509       5.915509
 1745   A          5.921491       5.921491
 1746   A          5.927161       5.927161
 1747   A          5.927880       5.927880
 1748   A          5.934224       5.934224
 1749   A          5.935716       5.935716
 1750   A          5.942452       5.942452
 1751   A          5.946607       5.946607
 1752   A          5.948006       5.948006
 1753   A          5.951136       5.951136
 1754   A          5.954770       5.954770
 1755   A          5.959702       5.959702
 1756   A          5.963173       5.963173
 1757   A          5.966440       5.966440
 1758   A          5.969211       5.969211
 1759   A          5.971163       5.971163
 1760   A          5.980188       5.980188
 1761   A          5.985158       5.985158
 1762   A          6.001623       6.001623
 1763   A          6.003182       6.003182
 1764   A          6.005084       6.005084
 1765   A          6.008442       6.008442
 1766   A          6.012654       6.012654
 1767   A          6.016284       6.016284
 1768   A          6.021695       6.021695
 1769   A          6.026231       6.026231
 1770   A          6.029256       6.029256
 1771   A          6.031692       6.031692
 1772   A          6.036287       6.036287
 1773   A          6.044639       6.044639
 1774   A          6.047526       6.047526
 1775   A          6.051804       6.051804
 1776   A          6.062576       6.062576
 1777   A          6.076157       6.076157
 1778   A          6.082702       6.082702
 1779   A          6.083244       6.083244
 1780   A          6.090997       6.090997
 1781   A          6.103975       6.103975
 1782   A          6.106077       6.106077
 1783   A          6.112763       6.112763
 1784   A          6.116493       6.116493
 1785   A          6.121726       6.121726
 1786   A          6.132098       6.132098
 1787   A          6.133391       6.133391
 1788   A          6.135689       6.135689
 1789   A          6.142330       6.142330
 1790   A          6.150882       6.150882
 1791   A          6.152310       6.152310
 1792   A          6.165444       6.165444
 1793   A          6.182733       6.182733
 1794   A          6.188356       6.188356
 1795   A          6.194638       6.194638
 1796   A          6.198778       6.198778
 1797   A          6.204106       6.204106
 1798   A          6.206787       6.206787
 1799   A          6.211122       6.211122
 1800   A          6.221941       6.221941
 1801   A          6.227135       6.227135
 1802   A          6.238399       6.238399
 1803   A          6.257606       6.257606
 1804   A          6.263104       6.263104
 1805   A          6.286694       6.286694
 1806   A          6.299637       6.299637
 1807   A          6.307881       6.307881
 1808   A          6.327800       6.327800
 1809   A          6.337285       6.337285
 1810   A          6.343514       6.343514
 1811   A          6.354713       6.354713
 1812   A          6.364043       6.364043
 1813   A          6.380730       6.380730
 1814   A          6.390265       6.390265
 1815   A          6.407764       6.407764
 1816   A          6.414796       6.414796
 1817   A          6.425035       6.425035
 1818   A          6.436637       6.436637
 1819   A          6.440766       6.440766
 1820   A          6.444464       6.444464
 1821   A          6.446758       6.446758
 1822   A          6.457064       6.457064
 1823   A          6.464598       6.464598
 1824   A          6.476749       6.476749
 1825   A          6.496110       6.496110
 1826   A          6.504858       6.504858
 1827   A          6.513225       6.513225
 1828   A          6.513868       6.513868
 1829   A          6.518814       6.518814
 1830   A          6.532226       6.532226
 1831   A          6.543865       6.543865
 1832   A          6.556324       6.556324
 1833   A          6.560249       6.560249
 1834   A          6.567112       6.567112
 1835   A          6.578950       6.578950
 1836   A          6.602063       6.602063
 1837   A          6.609719       6.609719
 1838   A          6.620515       6.620515
 1839   A          6.624920       6.624920
 1840   A          6.631850       6.631850
 1841   A          6.637996       6.637996
 1842   A          6.643315       6.643315
 1843   A          6.654399       6.654399
 1844   A          6.658426       6.658426
 1845   A          6.666930       6.666930
 1846   A          6.681585       6.681585
 1847   A          6.684687       6.684687
 1848   A          6.693858       6.693858
 1849   A          6.698409       6.698409
 1850   A          6.703575       6.703575
 1851   A          6.721209       6.721209
 1852   A          6.723200       6.723200
 1853   A          6.726416       6.726416
 1854   A          6.735637       6.735637
 1855   A          6.740809       6.740809
 1856   A          6.744804       6.744804
 1857   A          6.755022       6.755022
 1858   A          6.759026       6.759026
 1859   A          6.767533       6.767533
 1860   A          6.771199       6.771199
 1861   A          6.781955       6.781955
 1862   A          6.785457       6.785457
 1863   A          6.807314       6.807314
 1864   A          6.811528       6.811528
 1865   A          6.815772       6.815772
 1866   A          6.828617       6.828617
 1867   A          6.843466       6.843466
 1868   A          6.848705       6.848705
 1869   A          6.852903       6.852903
 1870   A          6.863865       6.863865
 1871   A          6.868085       6.868085
 1872   A          6.872899       6.872899
 1873   A          6.880925       6.880925
 1874   A          6.884701       6.884701
 1875   A          6.886650       6.886650
 1876   A          6.891132       6.891132
 1877   A          6.897141       6.897141
 1878   A          6.898120       6.898120
 1879   A          6.903723       6.903723
 1880   A          6.910529       6.910529
 1881   A          6.912273       6.912273
 1882   A          6.927497       6.927497
 1883   A          6.933075       6.933075
 1884   A          6.935650       6.935650
 1885   A          6.943503       6.943503
 1886   A          6.950437       6.950437
 1887   A          6.969099       6.969099
 1888   A          6.979709       6.979709
 1889   A          6.982442       6.982442
 1890   A          6.995223       6.995223
 1891   A          6.998275       6.998275
 1892   A          7.000072       7.000072
 1893   A          7.005779       7.005779
 1894   A          7.009819       7.009819
 1895   A          7.015862       7.015862
 1896   A          7.024895       7.024895
 1897   A          7.027808       7.027808
 1898   A          7.036561       7.036561
 1899   A          7.037464       7.037464
 1900   A          7.040119       7.040119
 1901   A          7.045813       7.045813
 1902   A          7.049969       7.049969
 1903   A          7.053602       7.053602
 1904   A          7.066223       7.066223
 1905   A          7.069453       7.069453
 1906   A          7.072893       7.072893
 1907   A          7.080772       7.080772
 1908   A          7.088126       7.088126
 1909   A          7.091335       7.091335
 1910   A          7.102525       7.102525
 1911   A          7.111279       7.111279
 1912   A          7.113839       7.113839
 1913   A          7.119990       7.119990
 1914   A          7.129375       7.129375
 1915   A          7.134408       7.134408
 1916   A          7.135917       7.135917
 1917   A          7.148052       7.148052
 1918   A          7.148924       7.148924
 1919   A          7.167938       7.167938
 1920   A          7.175066       7.175066
 1921   A          7.181575       7.181575
 1922   A          7.185878       7.185878
 1923   A          7.192854       7.192854
 1924   A          7.201334       7.201334
 1925   A          7.202854       7.202854
 1926   A          7.204189       7.204189
 1927   A          7.211532       7.211532
 1928   A          7.220871       7.220871
 1929   A          7.223609       7.223609
 1930   A          7.225084       7.225084
 1931   A          7.237238       7.237238
 1932   A          7.248873       7.248873
 1933   A          7.252235       7.252235
 1934   A          7.254185       7.254185
 1935   A          7.266320       7.266320
 1936   A          7.269277       7.269277
 1937   A          7.279736       7.279736
 1938   A          7.291694       7.291694
 1939   A          7.295437       7.295437
 1940   A          7.301050       7.301050
 1941   A          7.315192       7.315192
 1942   A          7.321930       7.321930
 1943   A          7.328699       7.328699
 1944   A          7.340770       7.340770
 1945   A          7.343617       7.343617
 1946   A          7.345154       7.345154
 1947   A          7.352066       7.352066
 1948   A          7.358672       7.358672
 1949   A          7.364081       7.364081
 1950   A          7.367094       7.367094
 1951   A          7.372063       7.372063
 1952   A          7.383531       7.383531
 1953   A          7.391710       7.391710
 1954   A          7.401594       7.401594
 1955   A          7.408240       7.408240
 1956   A          7.414335       7.414335
 1957   A          7.415722       7.415722
 1958   A          7.428032       7.428032
 1959   A          7.432586       7.432586
 1960   A          7.448043       7.448043
 1961   A          7.457218       7.457218
 1962   A          7.466791       7.466791
 1963   A          7.470644       7.470644
 1964   A          7.471990       7.471990
 1965   A          7.486314       7.486314
 1966   A          7.492226       7.492226
 1967   A          7.514882       7.514882
 1968   A          7.518631       7.518631
 1969   A          7.523430       7.523430
 1970   A          7.537338       7.537338
 1971   A          7.544569       7.544569
 1972   A          7.560705       7.560705
 1973   A          7.570686       7.570686
 1974   A          7.577513       7.577513
 1975   A          7.581727       7.581727
 1976   A          7.592091       7.592091
 1977   A          7.598157       7.598157
 1978   A          7.603943       7.603943
 1979   A          7.630419       7.630419
 1980   A          7.684635       7.684635
 1981   A          7.686092       7.686092
 1982   A          7.720159       7.720159
 1983   A          7.747987       7.747987
 1984   A          7.762093       7.762093
 1985   A          7.793393       7.793393
 1986   A          7.852980       7.852980
 1987   A          7.866779       7.866779
 1988   A          7.942288       7.942288
 1989   A          7.951856       7.951856
 1990   A          7.967090       7.967090
 1991   A          7.987845       7.987845
 1992   A          8.076713       8.076713
 1993   A          8.087017       8.087017
 1994   A          8.200753       8.200753
 1995   A         39.933798      39.933798
 1996   A         40.716367      40.716367
 1997   A         40.850385      40.850385
 1998   A         41.106780      41.106780
 1999   A         42.544009      42.544009
 2000   A         42.886672      42.886672
 2001   A         43.104788      43.104788
 2002   A         43.131733      43.131733
 2003   A         43.337534      43.337534
 2004   A         43.383594      43.383594
 2005   A         43.658138      43.658138
 2006   A         43.706171      43.706171
 2007   A         43.723442      43.723442
 2008   A         43.752873      43.752873
 2009   A         43.773328      43.773328
 2010   A         43.777113      43.777113
 2011   A         43.828949      43.828949
 2012   A         43.839418      43.839418
 2013   A         43.858987      43.858987
 2014   A         43.895912      43.895912
 2015   A         43.949360      43.949360
 2016   A         43.954562      43.954562
 2017   A         44.011737      44.011737
 2018   A         44.019478      44.019478
 2019   A         44.029552      44.029552
 2020   A         44.056385      44.056385
 2021   A         44.086222      44.086222
 2022   A         44.110667      44.110667
 2023   A         44.135971      44.135971
 2024   A         44.179635      44.179635
 2025   A         44.206452      44.206452
 2026   A         44.241845      44.241845
 2027   A         44.251368      44.251368
 2028   A         44.323428      44.323428
 2029   A         44.335468      44.335468
 2030   A         44.374193      44.374193
 2031   A         44.438998      44.438998
 2032   A         44.523074      44.523074
 2033   A         44.656611      44.656611
 2034   A         44.746718      44.746718
 2035   A         44.811958      44.811958
 2036   A         45.011279      45.011279
 2037   A         45.079691      45.079691
 
 RETURNING FROM SCF ALGORITHM
 ======================================================================
 
 ************************ 2021-11-18 09:02:39 *************************
                      Normal termination of mrcc.
 **********************************************************************
