 **********************************************************************
                          MRCC program system
 **********************************************************************
 
                              Written by
 Mihaly Kallay, Peter R. Nagy, David Mester, Zoltan Rolik, Gyula Samu,
   Jozsef Csontos, Jozsef Csoka, P. Bernat Szabo, Laszlo Gyevi-Nagy,
    Bence Hegely, Istvan Ladjanszki, Lorant Szegedy, Bence Ladoczki,
       Klara Petrov, Mate Farkas, Pal D. Mezei, and Adam Ganyecz
 
        Department of Physical Chemistry and Materials Science
            Budapest University of Technology and Economics
                  Budapest P.O.Box 91, H-1521 Hungary
 
                              www.mrcc.hu
 
                    Release date: February 22, 2020

 ************************ 2021-12-03 13:23:47 *************************
 Executing minp...

 Reading input from MINP...
 
 Input file:
 
calc=SCF
dft=BP86
scftype=rks
verbosity=3
mem=490GB
symm=off
unit=angs
scfiguess=mo
scfmaxit=60

charge=-54
basis=special
def2-QZVPP
def2-QZVPP
def2-QZVPP
def2-QZVPP
def2-QZVPP
def2-QZVPP
def2-QZVPP
def2-QZVPP
def2-QZVPP
def2-QZVPP
def2-QZVPP
def2-QZVPP
def2-QZVPP
def2-QZVPP
def2-QZVPP
def2-QZVPP
def2-QZVPP
def2-QZVPP
def2-QZVPP
def2-QZVPP
def2-QZVPP
def2-QZVPP
def2-QZVPP
def2-QZVPP
def2-QZVPP
def2-QZVPP
def2-QZVPP
def2-QZVPP
def2-QZVPP
def2-QZVPP
def2-QZVPP
def2-QZVPP
def2-QZVPP
def2-QZVPP
def2-QZVPP
def2-QZVPP
def2-QZVPP
def2-QZVPP
def2-QZVPP
def2-QZVPP
def2-QZVPP
def2-QZVPP
def2-QZVPP
def2-QZVPP
def2-QZVPP
def2-QZVPP
def2-QZVPP
def2-QZVPP
def2-QZVPP
def2-QZVPP
def2-QZVPP
def2-QZVPP
def2-QZVPP
def2-QZVPP
def2-QZVPP
def2-QZVPP
def2-QZVPP
def2-QZVPP
def2-QZVPP
def2-QZVPP
def2-QZVPP
def2-QZVPP
def2-QZVPP
def2-QZVPP
def2-QZVPP
def2-QZVPP
def2-QZVPP
def2-QZVPP
def2-QZVPP
def2-QZVPP
def2-QZVPP
def2-QZVPP
def2-QZVPP
def2-QZVPP
def2-QZVPP
def2-QZVPP
def2-QZVPP
def2-QZVPP
def2-QZVPP
def2-QZVPP
def2-QZVPP
def2-QZVPP
def2-QZVPP
def2-QZVPP
def2-QZVPP
def2-QZVPP
def2-QZVPP
def2-QZVPP
def2-QZVPP
def2-QZVPP
nothing
nothing
nothing
nothing
nothing
nothing
nothing
nothing
nothing
nothing
nothing
nothing
nothing
nothing
nothing
nothing
nothing
nothing
nothing
nothing
nothing
nothing
nothing
nothing
nothing
nothing
nothing
nothing
nothing
nothing
nothing
nothing
nothing
nothing
nothing
nothing
nothing
nothing
nothing
nothing
nothing
nothing
nothing
nothing
nothing
nothing
nothing
nothing
nothing
nothing
nothing
nothing
nothing
nothing
nothing
nothing
nothing
nothing
nothing
nothing
nothing
nothing
nothing
nothing
nothing
nothing
nothing
nothing
nothing
nothing
nothing
nothing
nothing
nothing
nothing
nothing
nothing
nothing
nothing
nothing
nothing
nothing
nothing
nothing
nothing
nothing
nothing
nothing
nothing
nothing
nothing
nothing
nothing
nothing
nothing
nothing
nothing
nothing
nothing
nothing
nothing
nothing
nothing
nothing
nothing
nothing
nothing
nothing
nothing
nothing
nothing
nothing
nothing
nothing
nothing
nothing
nothing
nothing
nothing
nothing
nothing
nothing
nothing
nothing
nothing
nothing
nothing
nothing
nothing
nothing
nothing
nothing
nothing
nothing
nothing
nothing
nothing
nothing
nothing
nothing
nothing
nothing
nothing
nothing
nothing
nothing
nothing
nothing
nothing
nothing
nothing
nothing
nothing
nothing
nothing
nothing
nothing
nothing
nothing
nothing
nothing
nothing
nothing
nothing
nothing
nothing
nothing
nothing
nothing
nothing
nothing

basis_sm=special
STO-3G
STO-3G
STO-3G
STO-3G
STO-3G
STO-3G
STO-3G
STO-3G
STO-3G
STO-3G
STO-3G
STO-3G
STO-3G
STO-3G
STO-3G
STO-3G
STO-3G
STO-3G
STO-3G
STO-3G
STO-3G
STO-3G
STO-3G
STO-3G
STO-3G
STO-3G
STO-3G
STO-3G
STO-3G
STO-3G
STO-3G
STO-3G
STO-3G
STO-3G
STO-3G
STO-3G
STO-3G
STO-3G
STO-3G
STO-3G
STO-3G
STO-3G
STO-3G
STO-3G
STO-3G
STO-3G
STO-3G
STO-3G
STO-3G
STO-3G
STO-3G
STO-3G
STO-3G
STO-3G
STO-3G
STO-3G
STO-3G
STO-3G
STO-3G
STO-3G
STO-3G
STO-3G
STO-3G
STO-3G
STO-3G
STO-3G
STO-3G
STO-3G
STO-3G
STO-3G
STO-3G
STO-3G
STO-3G
STO-3G
STO-3G
STO-3G
STO-3G
STO-3G
STO-3G
STO-3G
STO-3G
STO-3G
STO-3G
STO-3G
STO-3G
STO-3G
STO-3G
STO-3G
STO-3G
STO-3G
nothing
nothing
nothing
nothing
nothing
nothing
nothing
nothing
nothing
nothing
nothing
nothing
nothing
nothing
nothing
nothing
nothing
nothing
nothing
nothing
nothing
nothing
nothing
nothing
nothing
nothing
nothing
nothing
nothing
nothing
nothing
nothing
nothing
nothing
nothing
nothing
nothing
nothing
nothing
nothing
nothing
nothing
nothing
nothing
nothing
nothing
nothing
nothing
nothing
nothing
nothing
nothing
nothing
nothing
nothing
nothing
nothing
nothing
nothing
nothing
nothing
nothing
nothing
nothing
nothing
nothing
nothing
nothing
nothing
nothing
nothing
nothing
nothing
nothing
nothing
nothing
nothing
nothing
nothing
nothing
nothing
nothing
nothing
nothing
nothing
nothing
nothing
nothing
nothing
nothing
nothing
nothing
nothing
nothing
nothing
nothing
nothing
nothing
nothing
nothing
nothing
nothing
nothing
nothing
nothing
nothing
nothing
nothing
nothing
nothing
nothing
nothing
nothing
nothing
nothing
nothing
nothing
nothing
nothing
nothing
nothing
nothing
nothing
nothing
nothing
nothing
nothing
nothing
nothing
nothing
nothing
nothing
nothing
nothing
nothing
nothing
nothing
nothing
nothing
nothing
nothing
nothing
nothing
nothing
nothing
nothing
nothing
nothing
nothing
nothing
nothing
nothing
nothing
nothing
nothing
nothing
nothing
nothing
nothing
nothing
nothing
nothing
nothing
nothing
nothing
nothing
nothing
nothing
nothing
nothing
nothing

dfbasis_scf=special
def2-QZVPP-RI-JK
def2-QZVPP-RI-JK
def2-QZVPP-RI-JK
def2-QZVPP-RI-JK
def2-QZVPP-RI-JK
def2-QZVPP-RI-JK
def2-QZVPP-RI-JK
def2-QZVPP-RI-JK
def2-QZVPP-RI-JK
def2-QZVPP-RI-JK
def2-QZVPP-RI-JK
def2-QZVPP-RI-JK
def2-QZVPP-RI-JK
def2-QZVPP-RI-JK
def2-QZVPP-RI-JK
def2-QZVPP-RI-JK
def2-QZVPP-RI-JK
def2-QZVPP-RI-JK
def2-QZVPP-RI-JK
def2-QZVPP-RI-JK
def2-QZVPP-RI-JK
def2-QZVPP-RI-JK
def2-QZVPP-RI-JK
def2-QZVPP-RI-JK
def2-QZVPP-RI-JK
def2-QZVPP-RI-JK
def2-QZVPP-RI-JK
def2-QZVPP-RI-JK
def2-QZVPP-RI-JK
def2-QZVPP-RI-JK
def2-QZVPP-RI-JK
def2-QZVPP-RI-JK
def2-QZVPP-RI-JK
def2-QZVPP-RI-JK
def2-QZVPP-RI-JK
def2-QZVPP-RI-JK
def2-QZVPP-RI-JK
def2-QZVPP-RI-JK
def2-QZVPP-RI-JK
def2-QZVPP-RI-JK
def2-QZVPP-RI-JK
def2-QZVPP-RI-JK
def2-QZVPP-RI-JK
def2-QZVPP-RI-JK
def2-QZVPP-RI-JK
def2-QZVPP-RI-JK
def2-QZVPP-RI-JK
def2-QZVPP-RI-JK
def2-QZVPP-RI-JK
def2-QZVPP-RI-JK
def2-QZVPP-RI-JK
def2-QZVPP-RI-JK
def2-QZVPP-RI-JK
def2-QZVPP-RI-JK
def2-QZVPP-RI-JK
def2-QZVPP-RI-JK
def2-QZVPP-RI-JK
def2-QZVPP-RI-JK
def2-QZVPP-RI-JK
def2-QZVPP-RI-JK
def2-QZVPP-RI-JK
def2-QZVPP-RI-JK
def2-QZVPP-RI-JK
def2-QZVPP-RI-JK
def2-QZVPP-RI-JK
def2-QZVPP-RI-JK
def2-QZVPP-RI-JK
def2-QZVPP-RI-JK
def2-QZVPP-RI-JK
def2-QZVPP-RI-JK
def2-QZVPP-RI-JK
def2-QZVPP-RI-JK
def2-QZVPP-RI-JK
def2-QZVPP-RI-JK
def2-QZVPP-RI-JK
def2-QZVPP-RI-JK
def2-QZVPP-RI-JK
def2-QZVPP-RI-JK
def2-QZVPP-RI-JK
def2-QZVPP-RI-JK
def2-QZVPP-RI-JK
def2-QZVPP-RI-JK
def2-QZVPP-RI-JK
def2-QZVPP-RI-JK
def2-QZVPP-RI-JK
def2-QZVPP-RI-JK
def2-QZVPP-RI-JK
def2-QZVPP-RI-JK
def2-QZVPP-RI-JK
def2-QZVPP-RI-JK
nothing
nothing
nothing
nothing
nothing
nothing
nothing
nothing
nothing
nothing
nothing
nothing
nothing
nothing
nothing
nothing
nothing
nothing
nothing
nothing
nothing
nothing
nothing
nothing
nothing
nothing
nothing
nothing
nothing
nothing
nothing
nothing
nothing
nothing
nothing
nothing
nothing
nothing
nothing
nothing
nothing
nothing
nothing
nothing
nothing
nothing
nothing
nothing
nothing
nothing
nothing
nothing
nothing
nothing
nothing
nothing
nothing
nothing
nothing
nothing
nothing
nothing
nothing
nothing
nothing
nothing
nothing
nothing
nothing
nothing
nothing
nothing
nothing
nothing
nothing
nothing
nothing
nothing
nothing
nothing
nothing
nothing
nothing
nothing
nothing
nothing
nothing
nothing
nothing
nothing
nothing
nothing
nothing
nothing
nothing
nothing
nothing
nothing
nothing
nothing
nothing
nothing
nothing
nothing
nothing
nothing
nothing
nothing
nothing
nothing
nothing
nothing
nothing
nothing
nothing
nothing
nothing
nothing
nothing
nothing
nothing
nothing
nothing
nothing
nothing
nothing
nothing
nothing
nothing
nothing
nothing
nothing
nothing
nothing
nothing
nothing
nothing
nothing
nothing
nothing
nothing
nothing
nothing
nothing
nothing
nothing
nothing
nothing
nothing
nothing
nothing
nothing
nothing
nothing
nothing
nothing
nothing
nothing
nothing
nothing
nothing
nothing
nothing
nothing
nothing
nothing
nothing
nothing
nothing
nothing
nothing

ecp=special
none
none
none
none
none
none
none
none
none
none
none
none
none
none
none
none
none
none
none
none
none
none
none
none
none
none
none
none
none
none
none
none
none
none
none
none
none
none
none
none
none
none
none
none
none
none
none
none
none
none
none
none
none
none
none
none
none
none
none
none
none
none
none
none
none
none
none
none
none
none
none
none
none
none
none
none
none
none
none
none
none
none
none
none
none
none
none
none
none
none
ECP-22
ECP-22
ECP-22
ECP-22
ECP-22
ECP-22
ECP-22
ECP-22
ECP-22
ECP-22
ECP-22
ECP-22
ECP-22
ECP-22
ECP-22
ECP-22
ECP-22
ECP-22
ECP-22
ECP-22
ECP-22
ECP-22
ECP-22
ECP-22
ECP-22
ECP-22
ECP-22
ECP-22
ECP-22
ECP-22
ECP-22
ECP-22
ECP-22
ECP-22
ECP-22
ECP-22
ECP-22
ECP-22
ECP-22
ECP-22
ECP-22
ECP-22
ECP-22
ECP-22
ECP-22
ECP-22
ECP-22
ECP-22
ECP-22
ECP-22
ECP-22
ECP-22
ECP-22
ECP-22
ECP-22
ECP-22
ECP-22
ECP-22
ECP-22
ECP-22
ECP-22
ECP-22
ECP-22
ECP-22
ECP-22
ECP-22
ECP-22
ECP-22
ECP-22
ECP-22
ECP-22
ECP-22
ECP-22
ECP-22
ECP-22
ECP-22
ECP-22
ECP-22
ECP-22
ECP-22
ECP-22
ECP-22
ECP-22
ECP-22
ECP-22
ECP-22
ECP-22
ECP-22
ECP-22
ECP-22
ECP-22
ECP-22
ECP-22
ECP-22
ECP-22
ECP-22
ECP-22
ECP-22
ECP-22
ECP-22
ECP-22
ECP-22
ECP-22
ECP-22
ECP-22
ECP-22
ECP-22
ECP-22
ECP-22
ECP-22
ECP-22
ECP-22
ECP-22
ECP-22
ECP-22
ECP-22
ECP-22
ECP-22
ECP-22
ECP-22
ECP-22
ECP-22
ECP-22
ECP-22
ECP-22
ECP-22
ECP-22
ECP-22
ECP-22
ECP-22
ECP-22
ECP-22
ECP-22
ECP-22
ECP-22
ECP-22
ECP-22
ECP-22
ECP-22
ECP-22
ECP-22
ECP-22
ECP-22
ECP-22
ECP-22
ECP-22
ECP-22
ECP-22
ECP-22
ECP-22
ECP-22
ECP-22
ECP-22
ECP-22
ECP-22
ECP-22
ECP-22
ECP-22
ECP-22
ECP-22
ECP-22
ECP-22
ECP-22
ECP-22
ECP-22
ECP-22
ECP-22
ECP-22
ECP-22
ECP-22
ECP-22

unit=angs
geom=xyz
261
Ti21O69ECP171
O     0.00000000000    0.00000000000    0.00000000000
Ti    0.00000536997    1.48055149700   -1.06892606631
Ti    0.00000552101   -1.48055312386   -1.06892138720
O     0.00000442396   -0.00000111986   -2.54840301833
O    -2.03525914147    1.48054518365   -1.11149385695
O     2.03526534753    1.48054527935   -1.11149163807
O     2.03526471018   -1.48054700097   -1.11149295951
O    -2.03525907462   -1.48054722666   -1.11149503385
O    -0.00000037752    2.96109155033   -0.00000271770
O    -0.00000037752   -2.96109552160   -0.00000271770
Ti    3.25402319191   -0.00000112036   -1.42716202606
Ti   -3.25401610555   -0.00000112036   -1.42716202606
O     0.00000449994    2.96109199200   -2.54840438198
O     0.00000449994   -2.96109507993   -2.54840438198
Ti   -0.00005220374   -0.00000071014   -4.41288396045
Ti    0.00000552101    4.44163394806   -1.06892138720
Ti    0.00000536997   -4.44163557493   -1.06892606631
O     3.25402603430   -0.00000063665   -3.23990501486
O    -3.25401326317   -0.00000063665   -3.23990501486
Ti   -3.25401668289    2.96109302555   -1.42716235830
Ti    3.25402261457    2.96109302555   -1.42716235830
Ti    3.25402261457   -2.96109404638   -1.42716235830
Ti   -3.25401668289   -2.96109404638   -1.42716235830
O    -4.47277394994    1.48054527935   -1.11149163807
O     4.47278015600    1.48054518365   -1.11149385695
O     4.47278022285   -1.48054722666   -1.11149503385
O    -4.47277458729   -1.48054700097   -1.11149295951
O    -1.30106804451    1.48054600613   -4.51644966155
O     1.30109103436    1.48054591013   -4.51645509582
O     1.30109095673   -1.48054821213   -4.51645492343
O    -1.30106798933   -1.48054805070   -4.51644946585
O    -2.03525907462    4.44163984526   -1.11149503385
O     2.03526471018    4.44164007096   -1.11149295951
O     2.03526534753   -4.44164179257   -1.11149163807
O    -2.03525914147   -4.44164188827   -1.11149385695
Ti   -0.00005206359    2.96109301637   -4.41288206312
Ti   -0.00005206359   -2.96109405556   -4.41288206312
O    -3.25401306857    2.96109209923   -3.23990596489
O     3.25402622890    2.96109209923   -3.23990596489
O     3.25402622890   -2.96109497270   -3.23990596489
O    -3.25401306857   -2.96109497270   -3.23990596489
Ti    3.25395215162    1.48054533538   -4.59991327640
Ti    3.25395195581   -1.48054722422   -4.59991284715
Ti   -3.25408714585    1.48054533538   -4.59991327640
Ti   -3.25408734165   -1.48054722422   -4.59991284715
O     0.00000000000    5.92218707193    0.00000000000
O     0.00000000000   -5.92218707193    0.00000000000
O    -4.47277458729    4.44164007096   -1.11149295951
O     4.47278022285    4.44163984526   -1.11149503385
O     4.47278015600   -4.44164188827   -1.11149385695
O    -4.47277394994   -4.44164179257   -1.11149163807
O     0.00000442396    5.92218595207   -2.54840301833
O     0.00000442396   -5.92218819178   -2.54840301833
O    -1.30106798933    4.44163902122   -4.51644946585
O     1.30109095673    4.44163885980   -4.51645492343
O     1.30109103436   -4.44164116180   -4.51645509582
O    -1.30106804451   -4.44164106579   -4.51644966155
O    -6.50803929747    0.00000000000    0.00000000000
O     6.50803929747    0.00000000000    0.00000000000
O    -0.00000306899   -0.00000100232   -6.51331789952
O     3.25402501297   -0.00000107099   -5.78839374873
O    -3.25401428450   -0.00000107099   -5.78839374873
Ti   -6.50803392749    1.48055149700   -1.06892606631
Ti    6.50804466744    1.48055149700   -1.06892606631
Ti    6.50804481848   -1.48055312386   -1.06892138720
Ti   -6.50803377645   -1.48055312386   -1.06892138720
O     6.50804372142   -0.00000111986   -2.54840301833
O    -6.50803487351   -0.00000111986   -2.54840301833
O    -5.20694826311    1.48054591013   -4.51645509582
O     5.20697125296    1.48054600613   -4.51644966155
O     5.20697130813   -1.48054805070   -4.51644946585
O    -5.20694834074   -1.48054821213   -4.51645492343
O    -6.50803967498    2.96109155033   -0.00000271770
O     6.50803891995    2.96109155033   -0.00000271770
O     6.50803891995   -2.96109552160   -0.00000271770
O    -6.50803967498   -2.96109552160   -0.00000271770
O    -0.00000306899    2.96109253364   -6.51331789952
O    -0.00000306899   -2.96109453828   -6.51331789952
O    -3.25401413420    2.96109275570   -5.78839415273
O     3.25402516327    2.96109275570   -5.78839415273
O     3.25402516327   -2.96109431623   -5.78839415273
O    -3.25401413420   -2.96109431623   -5.78839415273
O    -6.50803479753    2.96109199200   -2.54840438198
O     6.50804379741    2.96109199200   -2.54840438198
O     6.50804379741   -2.96109507993   -2.54840438198
O    -6.50803479753   -2.96109507993   -2.54840438198
O    -8.54329843894    1.48054518365   -1.11149385695
O     8.54330464500    1.48054527935   -1.11149163807
O     8.54330400764   -1.48054700097   -1.11149295951
O    -8.54329837208   -1.48054722666   -1.11149503385
Ti   -3.25401610555    5.92218595157   -1.42716202606
Ti    3.25402319191    5.92218595157   -1.42716202606
Ti    3.25402319191   -5.92218819228   -1.42716202606
Ti   -3.25401610555   -5.92218819228   -1.42716202606
Ti    3.25395195581    4.44163984770   -4.59991284715
Ti    3.25395215162   -4.44164173655   -4.59991327640
Ti   -3.25408734165    4.44163984770   -4.59991284715
Ti   -3.25408714585   -4.44164173655   -4.59991327640
Ti   -0.00005220374    5.92218636178   -4.41288396045
Ti   -0.00005220374   -5.92218778207   -4.41288396045
Ti    0.00000536997    7.40273856892   -1.06892606631
Ti    0.00000552101   -7.40274019579   -1.06892138720
Ti    6.50798709372   -0.00000071014   -4.41288396045
Ti   -6.50809150121   -0.00000071014   -4.41288396045
Ti   -0.00000306899    1.48054576566   -7.78540932970
Ti   -0.00000306899   -1.48054777030   -7.78540932970
Ti   -6.50803377645    4.44163394806   -1.06892138720
Ti    6.50804481848    4.44163394806   -1.06892138720
Ti    6.50804466744   -4.44163557493   -1.06892606631
Ti   -6.50803392749   -4.44163557493   -1.06892606631
Ti    6.50798723387    2.96109301637   -4.41288206312
Ti    6.50798723387   -2.96109405556   -4.41288206312
Ti   -6.50809136106    2.96109301637   -4.41288206312
Ti   -6.50809136106   -2.96109405556   -4.41288206312
Ti    3.25401657974   -0.00000100232   -7.78540932970
Ti   -3.25402271772   -0.00000100232   -7.78540932970
Ti   -3.25402271772    2.96109253364   -7.78540932970
Ti    3.25401657974    2.96109253364   -7.78540932970
Ti    3.25401657974   -2.96109453828   -7.78540932970
Ti   -3.25402271772   -2.96109453828   -7.78540932970
Ti   -0.00000306899    4.44163930162   -7.78540932970
Ti   -0.00000306899   -4.44164130627   -7.78540932970
Ti   -3.25408714585    7.40273240730   -4.59991327640
Ti    3.25395215162    7.40273240730   -4.59991327640
Ti    3.25395195581   -7.40273429615   -4.59991284715
Ti   -3.25408734165   -7.40273429615   -4.59991284715
Ti   -3.25401668289    8.88328009748   -1.42716235830
Ti    3.25402261457    8.88328009748   -1.42716235830
Ti    3.25402261457   -8.88328111830   -1.42716235830
Ti   -3.25401668289   -8.88328111830   -1.42716235830
Ti    6.50798709372    5.92218636178   -4.41288396045
Ti    6.50798709372   -5.92218778207   -4.41288396045
Ti   -6.50809150121    5.92218636178   -4.41288396045
Ti   -6.50809150121   -5.92218778207   -4.41288396045
Ti    9.76206248938   -0.00000112036   -1.42716202606
Ti   -9.76205540302   -0.00000112036   -1.42716202606
Ti   -6.50803392749    7.40273856892   -1.06892606631
Ti    6.50804466744    7.40273856892   -1.06892606631
Ti    6.50804481848   -7.40274019579   -1.06892138720
Ti   -6.50803377645   -7.40274019579   -1.06892138720
Ti   -0.00005206359    8.88328008829   -4.41288206312
Ti   -0.00005206359   -8.88328112748   -4.41288206312
Ti   -6.50804236645    1.48054576566   -7.78540932970
Ti    6.50803622848    1.48054576566   -7.78540932970
Ti    6.50803622848   -1.48054777030   -7.78540932970
Ti   -6.50804236645   -1.48054777030   -7.78540932970
Ti   -9.76205598036    2.96109302555   -1.42716235830
Ti    9.76206191204    2.96109302555   -1.42716235830
Ti    9.76206191204   -2.96109404638   -1.42716235830
Ti   -9.76205598036   -2.96109404638   -1.42716235830
Ti   -3.25402271772    5.92218606960   -7.78540932970
Ti    3.25401657974    5.92218606960   -7.78540932970
Ti    3.25401657974   -5.92218807425   -7.78540932970
Ti   -3.25402271772   -5.92218807425   -7.78540932970
Ti    0.00000552101   10.36382101999   -1.06892138720
Ti    0.00000536997  -10.36382264685   -1.06892606631
Ti   -0.00000306899    7.40273283758   -7.78540932970
Ti   -0.00000306899   -7.40273484223   -7.78540932970
Ti    9.76199144908    1.48054533538   -4.59991327640
Ti    9.76199125328   -1.48054722422   -4.59991284715
Ti   -9.76212644332    1.48054533538   -4.59991327640
Ti   -9.76212663912   -1.48054722422   -4.59991284715
Ti   -0.00000306899   -0.00000100232  -11.03942897843
Ti   -6.50804236645    4.44163930162   -7.78540932970
Ti    6.50803622848    4.44163930162   -7.78540932970
Ti    6.50803622848   -4.44164130627   -7.78540932970
Ti   -6.50804236645   -4.44164130627   -7.78540932970
Ti   -0.00000306899    2.96109253364  -11.03942897843
Ti   -0.00000306899   -2.96109453828  -11.03942897843
Ti   -9.76205540302    5.92218595157   -1.42716202606
Ti    9.76206248938    5.92218595157   -1.42716202606
Ti    9.76206248938   -5.92218819228   -1.42716202606
Ti   -9.76205540302   -5.92218819228   -1.42716202606
Ti   -3.25402271772    1.48054576566  -11.03942897843
Ti    3.25401657974    1.48054576566  -11.03942897843
Ti    3.25401657974   -1.48054777030  -11.03942897843
Ti   -3.25402271772   -1.48054777030  -11.03942897843
Ti    9.76199125328    4.44163984770   -4.59991284715
Ti    9.76199144908   -4.44164173655   -4.59991327640
Ti   -9.76212663912    4.44163984770   -4.59991284715
Ti   -9.76212644332   -4.44164173655   -4.59991327640
Ti   -3.25408734165   10.36382691963   -4.59991284715
Ti    3.25395195581   10.36382691963   -4.59991284715
Ti    3.25395215162  -10.36382880847   -4.59991327640
Ti   -3.25408714585  -10.36382880847   -4.59991327640
Ti    6.50798723387    8.88328008829   -4.41288206312
Ti    6.50798723387   -8.88328112748   -4.41288206312
Ti   -6.50809136106    8.88328008829   -4.41288206312
Ti   -6.50809136106   -8.88328112748   -4.41288206312
Ti   -3.25402271772    8.88327960557   -7.78540932970
Ti    3.25401657974    8.88327960557   -7.78540932970
Ti    3.25401657974   -8.88328161021   -7.78540932970
Ti   -3.25402271772   -8.88328161021   -7.78540932970
Ti   -6.50803377645   10.36382101999   -1.06892138720
Ti    6.50804481848   10.36382101999   -1.06892138720
Ti    6.50804466744  -10.36382264685   -1.06892606631
Ti   -6.50803392749  -10.36382264685   -1.06892606631
Ti   -3.25402271772    4.44163930162  -11.03942897843
Ti    3.25401657974    4.44163930162  -11.03942897843
Ti    3.25401657974   -4.44164130627  -11.03942897843
Ti   -3.25402271772   -4.44164130627  -11.03942897843
Ti   -3.25401610555   11.84437302349   -1.42716202606
Ti    3.25402319191   11.84437302349   -1.42716202606
Ti    3.25402319191  -11.84437526421   -1.42716202606
Ti   -3.25401610555  -11.84437526421   -1.42716202606
Ti    9.76205587721   -0.00000100232   -7.78540932970
Ti   -9.76206201519   -0.00000100232   -7.78540932970
Ti   -0.00000306899    5.92218606960  -11.03942897843
Ti   -0.00000306899   -5.92218807425  -11.03942897843
Ti   -6.50804236645    7.40273283758   -7.78540932970
Ti    6.50803622848    7.40273283758   -7.78540932970
Ti    6.50803622848   -7.40273484223   -7.78540932970
Ti   -6.50804236645   -7.40273484223   -7.78540932970
Ti   -0.00005220374   11.84437343371   -4.41288396045
Ti   -0.00005220374  -11.84437485399   -4.41288396045
Ti    6.50803622848   -0.00000100232  -11.03942897843
Ti   -6.50804236645   -0.00000100232  -11.03942897843
Ti   -9.76206201519    2.96109253364   -7.78540932970
Ti    9.76205587721    2.96109253364   -7.78540932970
Ti    9.76205587721   -2.96109453828   -7.78540932970
Ti   -9.76206201519   -2.96109453828   -7.78540932970
Ti   -0.00000306899   10.36382637355   -7.78540932970
Ti   -0.00000306899  -10.36382837819   -7.78540932970
Ti    9.76199144908    7.40273240730   -4.59991327640
Ti    9.76199125328   -7.40273429615   -4.59991284715
Ti   -9.76212644332    7.40273240730   -4.59991327640
Ti   -9.76212663912   -7.40273429615   -4.59991284715
Ti  -13.01607322496    1.48055149700   -1.06892606631
Ti   13.01608396490    1.48055149700   -1.06892606631
Ti   13.01608411594   -1.48055312386   -1.06892138720
Ti  -13.01607307392   -1.48055312386   -1.06892138720
Ti   -6.50804236645    2.96109253364  -11.03942897843
Ti    6.50803622848    2.96109253364  -11.03942897843
Ti    6.50803622848   -2.96109453828  -11.03942897843
Ti   -6.50804236645   -2.96109453828  -11.03942897843
Ti   -9.76205598036    8.88328009748   -1.42716235830
Ti    9.76206191204    8.88328009748   -1.42716235830
Ti    9.76206191204   -8.88328111830   -1.42716235830
Ti   -9.76205598036   -8.88328111830   -1.42716235830
Ti   -3.25402271772    7.40273283758  -11.03942897843
Ti    3.25401657974    7.40273283758  -11.03942897843
Ti    3.25401657974   -7.40273484223  -11.03942897843
Ti   -3.25402271772   -7.40273484223  -11.03942897843
Ti   13.01602639119   -0.00000071014   -4.41288396045
Ti  -13.01613079868   -0.00000071014   -4.41288396045
Ti  -13.01607307392    4.44163394806   -1.06892138720
Ti   13.01608411594    4.44163394806   -1.06892138720
Ti   13.01608396490   -4.44163557493   -1.06892606631
Ti  -13.01607322496   -4.44163557493   -1.06892606631
Ti   -9.76206201519    5.92218606960   -7.78540932970
Ti    9.76205587721    5.92218606960   -7.78540932970
Ti    9.76205587721   -5.92218807425   -7.78540932970
Ti   -9.76206201519   -5.92218807425   -7.78540932970
Ti   13.01602653134    2.96109301637   -4.41288206312
Ti   13.01602653134   -2.96109405556   -4.41288206312
Ti  -13.01613065852    2.96109301637   -4.41288206312
Ti  -13.01613065852   -2.96109405556   -4.41288206312
Ti   -6.50804236645    5.92218606960  -11.03942897843
Ti    6.50803622848    5.92218606960  -11.03942897843
Ti    6.50803622848   -5.92218807425  -11.03942897843
Ti   -6.50804236645   -5.92218807425  -11.03942897843

qmmm=Amber
pointcharges
12903
     -3.25401610555    5.92218595157   -1.42716202606    4.00000000000
      3.25402319191    5.92218595157   -1.42716202606    4.00000000000
      3.25402319191   -5.92218819228   -1.42716202606    4.00000000000
     -3.25401610555   -5.92218819228   -1.42716202606    4.00000000000
      3.25395195581    4.44163984770   -4.59991284715    4.00000000000
      3.25395215162   -4.44164173655   -4.59991327640    4.00000000000
     -3.25408734165    4.44163984770   -4.59991284715    4.00000000000
     -3.25408714585   -4.44164173655   -4.59991327640    4.00000000000
     -0.00005220374    5.92218636178   -4.41288396045    4.00000000000
     -0.00005220374   -5.92218778207   -4.41288396045    4.00000000000
      0.00000536997    7.40273856892   -1.06892606631    4.00000000000
      0.00000552101   -7.40274019579   -1.06892138720    4.00000000000
     -3.25401326317    5.92218643528   -3.23990501486   -2.00000000000
      3.25402603430    5.92218643528   -3.23990501486   -2.00000000000
      3.25402603430   -5.92218770857   -3.23990501486   -2.00000000000
     -3.25401326317   -5.92218770857   -3.23990501486   -2.00000000000
     -2.03525914147    7.40273225558   -1.11149385695   -2.00000000000
      2.03526534753    7.40273235128   -1.11149163807   -2.00000000000
      2.03526471018   -7.40273407290   -1.11149295951   -2.00000000000
     -2.03525907462   -7.40273429859   -1.11149503385   -2.00000000000
      6.50798709372   -0.00000071014   -4.41288396045    4.00000000000
     -6.50809150121   -0.00000071014   -4.41288396045    4.00000000000
     -0.00000306899    1.48054576566   -7.78540932970    4.00000000000
     -0.00000306899   -1.48054777030   -7.78540932970    4.00000000000
     -6.50803377645    4.44163394806   -1.06892138720    4.00000000000
      6.50804481848    4.44163394806   -1.06892138720    4.00000000000
      6.50804466744   -4.44163557493   -1.06892606631    4.00000000000
     -6.50803392749   -4.44163557493   -1.06892606631    4.00000000000
     -1.98193128755    1.48054576566   -7.78540932970   -2.00000000000
      1.98192514957    1.48054576566   -7.78540932970   -2.00000000000
      1.98192514957   -1.48054777030   -7.78540932970   -2.00000000000
     -1.98193128755   -1.48054777030   -7.78540932970   -2.00000000000
     -5.20694834074    4.44163885980   -4.51645492343   -2.00000000000
      5.20697130813    4.44163902122   -4.51644946585   -2.00000000000
      5.20697125296   -4.44164106579   -4.51644966155   -2.00000000000
     -5.20694826311   -4.44164116180   -4.51645509582   -2.00000000000
      6.50798723387    2.96109301637   -4.41288206312    4.00000000000
      6.50798723387   -2.96109405556   -4.41288206312    4.00000000000
     -6.50809136106    2.96109301637   -4.41288206312    4.00000000000
     -6.50809136106   -2.96109405556   -4.41288206312    4.00000000000
      3.25401657974   -0.00000100232   -7.78540932970    4.00000000000
     -3.25402271772   -0.00000100232   -7.78540932970    4.00000000000
     -4.47277394994    7.40273235128   -1.11149163807   -2.00000000000
      4.47278015600    7.40273225558   -1.11149385695   -2.00000000000
      4.47278022285   -7.40273429859   -1.11149503385   -2.00000000000
     -4.47277458729   -7.40273407290   -1.11149295951   -2.00000000000
     -1.30106804451    7.40273307806   -4.51644966155   -2.00000000000
      1.30109103436    7.40273298205   -4.51645509582   -2.00000000000
      1.30109095673   -7.40273528405   -4.51645492343   -2.00000000000
     -1.30106798933   -7.40273512263   -4.51644946585   -2.00000000000
     -6.50803929747    5.92218707193    0.00000000000   -2.00000000000
      6.50803929747    5.92218707193    0.00000000000   -2.00000000000
      6.50803929747   -5.92218707193    0.00000000000   -2.00000000000
     -6.50803929747   -5.92218707193    0.00000000000   -2.00000000000
     -0.00000306899    5.92218606960   -6.51331789952   -2.00000000000
     -0.00000306899   -5.92218807425   -6.51331789952   -2.00000000000
     -0.00000037752    8.88327862225   -0.00000271770   -2.00000000000
     -0.00000037752   -8.88328259352   -0.00000271770   -2.00000000000
     -3.25401428450    5.92218600093   -5.78839374873   -2.00000000000
      3.25402501297    5.92218600093   -5.78839374873   -2.00000000000
      3.25402501297   -5.92218814292   -5.78839374873   -2.00000000000
     -3.25401428450   -5.92218814292   -5.78839374873   -2.00000000000
     -3.25402271772    2.96109253364   -7.78540932970    4.00000000000
      3.25401657974    2.96109253364   -7.78540932970    4.00000000000
      3.25401657974   -2.96109453828   -7.78540932970    4.00000000000
     -3.25402271772   -2.96109453828   -7.78540932970    4.00000000000
     -0.00000306899    4.44163930162   -7.78540932970    4.00000000000
     -0.00000306899   -4.44164130627   -7.78540932970    4.00000000000
     -0.00000306899   -0.00000100232   -9.05750075987   -2.00000000000
     -4.52611414790    1.48054576566   -7.78540932970   -2.00000000000
      4.52610800992    1.48054576566   -7.78540932970   -2.00000000000
      4.52610800992   -1.48054777030   -7.78540932970   -2.00000000000
     -4.52611414790   -1.48054777030   -7.78540932970   -2.00000000000
     -7.80910734197    1.48054600613   -4.51644966155   -2.00000000000
      7.80913033182    1.48054591013   -4.51645509582   -2.00000000000
      7.80913025419   -1.48054821213   -4.51645492343   -2.00000000000
     -7.80910728680   -1.48054805070   -4.51644946585   -2.00000000000
     -6.50803487351    5.92218595207   -2.54840301833   -2.00000000000
      6.50804372142    5.92218595207   -2.54840301833   -2.00000000000
      6.50804372142   -5.92218819178   -2.54840301833   -2.00000000000
     -6.50803487351   -5.92218819178   -2.54840301833   -2.00000000000
     -1.98193128755    4.44163930162   -7.78540932970   -2.00000000000
      1.98192514957    4.44163930162   -7.78540932970   -2.00000000000
      1.98192514957   -4.44164130627   -7.78540932970   -2.00000000000
     -1.98193128755   -4.44164130627   -7.78540932970   -2.00000000000
      6.50803622848   -0.00000100232   -6.51331789952   -2.00000000000
     -6.50804236645   -0.00000100232   -6.51331789952   -2.00000000000
      0.00000449994    8.88327906392   -2.54840438198   -2.00000000000
      0.00000449994   -8.88328215185   -2.54840438198   -2.00000000000
     -3.25408714585    7.40273240730   -4.59991327640    4.00000000000
      3.25395215162    7.40273240730   -4.59991327640    4.00000000000
      3.25395195581   -7.40273429615   -4.59991284715    4.00000000000
     -3.25408734165   -7.40273429615   -4.59991284715    4.00000000000
     -0.00000306899    2.96109253364   -9.05750075987   -2.00000000000
     -0.00000306899   -2.96109453828   -9.05750075987   -2.00000000000
     -3.25401668289    8.88328009748   -1.42716235830    4.00000000000
      3.25402261457    8.88328009748   -1.42716235830    4.00000000000
      3.25402261457   -8.88328111830   -1.42716235830    4.00000000000
     -3.25401668289   -8.88328111830   -1.42716235830    4.00000000000
     -6.50804236645    2.96109253364   -6.51331789952   -2.00000000000
      6.50803622848    2.96109253364   -6.51331789952   -2.00000000000
      6.50803622848   -2.96109453828   -6.51331789952   -2.00000000000
     -6.50804236645   -2.96109453828   -6.51331789952   -2.00000000000
     -8.54329837208    4.44163984526   -1.11149503385   -2.00000000000
      8.54330400764    4.44164007096   -1.11149295951   -2.00000000000
      8.54330464500   -4.44164179257   -1.11149163807   -2.00000000000
     -8.54329843894   -4.44164188827   -1.11149385695   -2.00000000000
      6.50798709372    5.92218636178   -4.41288396045    4.00000000000
      6.50798709372   -5.92218778207   -4.41288396045    4.00000000000
     -6.50809150121    5.92218636178   -4.41288396045    4.00000000000
     -6.50809150121   -5.92218778207   -4.41288396045    4.00000000000
      9.76206248938   -0.00000112036   -1.42716202606    4.00000000000
     -9.76205540302   -0.00000112036   -1.42716202606    4.00000000000
     -6.50803392749    7.40273856892   -1.06892606631    4.00000000000
      6.50804466744    7.40273856892   -1.06892606631    4.00000000000
      6.50804481848   -7.40274019579   -1.06892138720    4.00000000000
     -6.50803377645   -7.40274019579   -1.06892138720    4.00000000000
     -0.00005206359    8.88328008829   -4.41288206312    4.00000000000
     -0.00005206359   -8.88328112748   -4.41288206312    4.00000000000
     -3.25401306857    8.88327917115   -3.23990596489   -2.00000000000
      3.25402622890    8.88327917115   -3.23990596489   -2.00000000000
      3.25402622890   -8.88328204462   -3.23990596489   -2.00000000000
     -3.25401306857   -8.88328204462   -3.23990596489   -2.00000000000
     -4.52611414790    4.44163930162   -7.78540932970   -2.00000000000
      4.52610800992    4.44163930162   -7.78540932970   -2.00000000000
      4.52610800992   -4.44164130627   -7.78540932970   -2.00000000000
     -4.52611414790   -4.44164130627   -7.78540932970   -2.00000000000
     -7.80910728680    4.44163902122   -4.51644946585   -2.00000000000
      7.80913025419    4.44163885980   -4.51645492343   -2.00000000000
      7.80913033182   -4.44164116180   -4.51645509582   -2.00000000000
     -7.80910734197   -4.44164106579   -4.51644966155   -2.00000000000
     -5.20694826311    7.40273298205   -4.51645509582   -2.00000000000
      5.20697125296    7.40273307806   -4.51644966155   -2.00000000000
      5.20697130813   -7.40273512263   -4.51644946585   -2.00000000000
     -5.20694834074   -7.40273528405   -4.51645492343   -2.00000000000
     -6.50804236645    1.48054576566   -7.78540932970    4.00000000000
      6.50803622848    1.48054576566   -7.78540932970    4.00000000000
      6.50803622848   -1.48054777030   -7.78540932970    4.00000000000
     -6.50804236645   -1.48054777030   -7.78540932970    4.00000000000
      9.76206533176   -0.00000063665   -3.23990501486   -2.00000000000
     -9.76205256063   -0.00000063665   -3.23990501486   -2.00000000000
      3.25401657974   -0.00000100232   -9.76733754826   -2.00000000000
     -3.25402271772   -0.00000100232   -9.76733754826   -2.00000000000
     -9.76205598036    2.96109302555   -1.42716235830    4.00000000000
      9.76206191204    2.96109302555   -1.42716235830    4.00000000000
      9.76206191204   -2.96109404638   -1.42716235830    4.00000000000
     -9.76205598036   -2.96109404638   -1.42716235830    4.00000000000
     -3.25402271772    5.92218606960   -7.78540932970    4.00000000000
      3.25401657974    5.92218606960   -7.78540932970    4.00000000000
      3.25401657974   -5.92218807425   -7.78540932970    4.00000000000
     -3.25402271772   -5.92218807425   -7.78540932970    4.00000000000
      0.00000552101   10.36382101999   -1.06892138720    4.00000000000
      0.00000536997  -10.36382264685   -1.06892606631    4.00000000000
     -2.03525907462   10.36382691719   -1.11149503385   -2.00000000000
      2.03526471018   10.36382714288   -1.11149295951   -2.00000000000
      2.03526534753  -10.36382886450   -1.11149163807   -2.00000000000
     -2.03525914147  -10.36382896020   -1.11149385695   -2.00000000000
     -9.76205236604    2.96109209923   -3.23990596489   -2.00000000000
      9.76206552636    2.96109209923   -3.23990596489   -2.00000000000
      9.76206552636   -2.96109497270   -3.23990596489   -2.00000000000
     -9.76205236604   -2.96109497270   -3.23990596489   -2.00000000000
     -3.25402271772    2.96109253364   -9.76733754826   -2.00000000000
      3.25401657974    2.96109253364   -9.76733754826   -2.00000000000
      3.25401657974   -2.96109453828   -9.76733754826   -2.00000000000
     -3.25402271772   -2.96109453828   -9.76733754826   -2.00000000000
     -0.00000306899    7.40273283758   -7.78540932970    4.00000000000
     -0.00000306899   -7.40273484223   -7.78540932970    4.00000000000
     -0.00000306899    5.92218606960   -9.05750075987   -2.00000000000
     -0.00000306899   -5.92218807425   -9.05750075987   -2.00000000000
      9.76199144908    1.48054533538   -4.59991327640    4.00000000000
      9.76199125328   -1.48054722422   -4.59991284715    4.00000000000
     -9.76212644332    1.48054533538   -4.59991327640    4.00000000000
     -9.76212663912   -1.48054722422   -4.59991284715    4.00000000000
     -1.98193128755    7.40273283758   -7.78540932970   -2.00000000000
      1.98192514957    7.40273283758   -7.78540932970   -2.00000000000
      1.98192514957   -7.40273484223   -7.78540932970   -2.00000000000
     -1.98193128755   -7.40273484223   -7.78540932970   -2.00000000000
     -6.50804236645    5.92218606960   -6.51331789952   -2.00000000000
      6.50803622848    5.92218606960   -6.51331789952   -2.00000000000
      6.50803622848   -5.92218807425   -6.51331789952   -2.00000000000
     -6.50804236645   -5.92218807425   -6.51331789952   -2.00000000000
     -6.50803967498    8.88327862225   -0.00000271770   -2.00000000000
      6.50803891995    8.88327862225   -0.00000271770   -2.00000000000
      6.50803891995   -8.88328259352   -0.00000271770   -2.00000000000
     -6.50803967498   -8.88328259352   -0.00000271770   -2.00000000000
     -0.00000306899    8.88327960557   -6.51331789952   -2.00000000000
     -0.00000306899   -8.88328161021   -6.51331789952   -2.00000000000
     -0.00000306899   -0.00000100232  -11.03942897843    4.00000000000
     -6.50804236645    4.44163930162   -7.78540932970    4.00000000000
      6.50803622848    4.44163930162   -7.78540932970    4.00000000000
      6.50803622848   -4.44164130627   -7.78540932970    4.00000000000
     -6.50804236645   -4.44164130627   -7.78540932970    4.00000000000
     -3.25401413420    8.88327982762   -5.78839415273   -2.00000000000
      3.25402516327    8.88327982762   -5.78839415273   -2.00000000000
      3.25402516327   -8.88328138815   -5.78839415273   -2.00000000000
     -3.25401413420   -8.88328138815   -5.78839415273   -2.00000000000
    -10.98081324740    1.48054527935   -1.11149163807   -2.00000000000
     10.98081945346    1.48054518365   -1.11149385695   -2.00000000000
     10.98081952031   -1.48054722666   -1.11149503385   -2.00000000000
    -10.98081388475   -1.48054700097   -1.11149295951   -2.00000000000
      6.50803622848   -0.00000100232   -9.05750075987   -2.00000000000
     -6.50804236645   -0.00000100232   -9.05750075987   -2.00000000000
     -1.27209449916    1.48054576566  -11.03942897843   -2.00000000000
      1.27208836119    1.48054576566  -11.03942897843   -2.00000000000
      1.27208836119   -1.48054777030  -11.03942897843   -2.00000000000
     -1.27209449916   -1.48054777030  -11.03942897843   -2.00000000000
     -6.50803479753    8.88327906392   -2.54840438198   -2.00000000000
      6.50804379741    8.88327906392   -2.54840438198   -2.00000000000
      6.50804379741   -8.88328215185   -2.54840438198   -2.00000000000
     -6.50803479753   -8.88328215185   -2.54840438198   -2.00000000000
     -4.47277458729   10.36382714288   -1.11149295951   -2.00000000000
      4.47278022285   10.36382691719   -1.11149503385   -2.00000000000
      4.47278015600  -10.36382896020   -1.11149385695   -2.00000000000
     -4.47277394994  -10.36382886450   -1.11149163807   -2.00000000000
      9.76206431043   -0.00000107099   -5.78839374873   -2.00000000000
     -9.76205358197   -0.00000107099   -5.78839374873   -2.00000000000
     -8.54329843894    7.40273225558   -1.11149385695   -2.00000000000
      8.54330464500    7.40273235128   -1.11149163807   -2.00000000000
      8.54330400764   -7.40273407290   -1.11149295951   -2.00000000000
     -8.54329837208   -7.40273429859   -1.11149503385   -2.00000000000
     -1.30106798933   10.36382609315   -4.51644946585   -2.00000000000
      1.30109095673   10.36382593172   -4.51645492343   -2.00000000000
      1.30109103436  -10.36382823372   -4.51645509582   -2.00000000000
     -1.30106804451  -10.36382813772   -4.51644966155   -2.00000000000
     -0.00000306899    2.96109253364  -11.03942897843    4.00000000000
     -0.00000306899   -2.96109453828  -11.03942897843    4.00000000000
     -9.76205540302    5.92218595157   -1.42716202606    4.00000000000
      9.76206248938    5.92218595157   -1.42716202606    4.00000000000
      9.76206248938   -5.92218819228   -1.42716202606    4.00000000000
     -9.76205540302   -5.92218819228   -1.42716202606    4.00000000000
     -6.50804236645    2.96109253364   -9.05750075987   -2.00000000000
      6.50803622848    2.96109253364   -9.05750075987   -2.00000000000
      6.50803622848   -2.96109453828   -9.05750075987   -2.00000000000
     -6.50804236645   -2.96109453828   -9.05750075987   -2.00000000000
     -3.25402271772    1.48054576566  -11.03942897843    4.00000000000
      3.25401657974    1.48054576566  -11.03942897843    4.00000000000
      3.25401657974   -1.48054777030  -11.03942897843    4.00000000000
     -3.25402271772   -1.48054777030  -11.03942897843    4.00000000000
     -8.48997058501    1.48054576566   -7.78540932970   -2.00000000000
      8.48996444703    1.48054576566   -7.78540932970   -2.00000000000
      8.48996444703   -1.48054777030   -7.78540932970   -2.00000000000
     -8.48997058501   -1.48054777030   -7.78540932970   -2.00000000000
     -4.52611414790    7.40273283758   -7.78540932970   -2.00000000000
      4.52610800992    7.40273283758   -7.78540932970   -2.00000000000
      4.52610800992   -7.40273484223   -7.78540932970   -2.00000000000
     -4.52611414790   -7.40273484223   -7.78540932970   -2.00000000000
     -7.80910734197    7.40273307806   -4.51644966155   -2.00000000000
      7.80913033182    7.40273298205   -4.51645509582   -2.00000000000
      7.80913025419   -7.40273528405   -4.51645492343   -2.00000000000
     -7.80910728680   -7.40273512263   -4.51644946585   -2.00000000000
      9.76199125328    4.44163984770   -4.59991284715    4.00000000000
      9.76199144908   -4.44164173655   -4.59991327640    4.00000000000
     -9.76212663912    4.44163984770   -4.59991284715    4.00000000000
     -9.76212644332   -4.44164173655   -4.59991327640    4.00000000000
     -9.76205343167    2.96109275570   -5.78839415273   -2.00000000000
      9.76206446073    2.96109275570   -5.78839415273   -2.00000000000
      9.76206446073   -2.96109431623   -5.78839415273   -2.00000000000
     -9.76205343167   -2.96109431623   -5.78839415273   -2.00000000000
     -3.25408734165   10.36382691963   -4.59991284715    4.00000000000
      3.25395195581   10.36382691963   -4.59991284715    4.00000000000
      3.25395215162  -10.36382880847   -4.59991327640    4.00000000000
     -3.25408714585  -10.36382880847   -4.59991327640    4.00000000000
      0.00000000000   11.84437414385    0.00000000000   -2.00000000000
      0.00000000000  -11.84437414385    0.00000000000   -2.00000000000
      6.50798723387    8.88328008829   -4.41288206312    4.00000000000
      6.50798723387   -8.88328112748   -4.41288206312    4.00000000000
     -6.50809136106    8.88328008829   -4.41288206312    4.00000000000
     -6.50809136106   -8.88328112748   -4.41288206312    4.00000000000
     -9.76205256063    5.92218643528   -3.23990501486   -2.00000000000
      9.76206533176    5.92218643528   -3.23990501486   -2.00000000000
      9.76206533176   -5.92218770857   -3.23990501486   -2.00000000000
     -9.76205256063   -5.92218770857   -3.23990501486   -2.00000000000
     -3.25402271772    5.92218606960   -9.76733754826   -2.00000000000
      3.25401657974    5.92218606960   -9.76733754826   -2.00000000000
      3.25401657974   -5.92218807425   -9.76733754826   -2.00000000000
     -3.25402271772   -5.92218807425   -9.76733754826   -2.00000000000
    -10.98081388475    4.44164007096   -1.11149295951   -2.00000000000
     10.98081952031    4.44163984526   -1.11149503385   -2.00000000000
     10.98081945346   -4.44164188827   -1.11149385695   -2.00000000000
    -10.98081324740   -4.44164179257   -1.11149163807   -2.00000000000
     -1.27209449916    4.44163930162  -11.03942897843   -2.00000000000
      1.27208836119    4.44163930162  -11.03942897843   -2.00000000000
      1.27208836119   -4.44164130627  -11.03942897843   -2.00000000000
     -1.27209449916   -4.44164130627  -11.03942897843   -2.00000000000
      0.00000442396   11.84437302399   -2.54840301833   -2.00000000000
      0.00000442396  -11.84437526371   -2.54840301833   -2.00000000000
     -3.25402271772    8.88327960557   -7.78540932970    4.00000000000
      3.25401657974    8.88327960557   -7.78540932970    4.00000000000
      3.25401657974   -8.88328161021   -7.78540932970    4.00000000000
     -3.25402271772   -8.88328161021   -7.78540932970    4.00000000000
     -6.50803377645   10.36382101999   -1.06892138720    4.00000000000
      6.50804481848   10.36382101999   -1.06892138720    4.00000000000
      6.50804466744  -10.36382264685   -1.06892606631    4.00000000000
     -6.50803392749  -10.36382264685   -1.06892606631    4.00000000000
     -5.23595093628    1.48054576566  -11.03942897843   -2.00000000000
      5.23594479830    1.48054576566  -11.03942897843   -2.00000000000
      5.23594479830   -1.48054777030  -11.03942897843   -2.00000000000
     -5.23595093628   -1.48054777030  -11.03942897843   -2.00000000000
     -3.25402271772    4.44163930162  -11.03942897843    4.00000000000
      3.25401657974    4.44163930162  -11.03942897843    4.00000000000
      3.25401657974   -4.44164130627  -11.03942897843    4.00000000000
     -3.25402271772   -4.44164130627  -11.03942897843    4.00000000000
     -8.48997058501    4.44163930162   -7.78540932970   -2.00000000000
      8.48996444703    4.44163930162   -7.78540932970   -2.00000000000
      8.48996444703   -4.44164130627   -7.78540932970   -2.00000000000
     -8.48997058501   -4.44164130627   -7.78540932970   -2.00000000000
     -3.25401610555   11.84437302349   -1.42716202606    4.00000000000
      3.25402319191   11.84437302349   -1.42716202606    4.00000000000
      3.25402319191  -11.84437526421   -1.42716202606    4.00000000000
     -3.25401610555  -11.84437526421   -1.42716202606    4.00000000000
     -5.20694834074   10.36382593172   -4.51645492343   -2.00000000000
      5.20697130813   10.36382609315   -4.51644946585   -2.00000000000
      5.20697125296  -10.36382813772   -4.51644966155   -2.00000000000
     -5.20694826311  -10.36382823372   -4.51645509582   -2.00000000000
      9.76205587721   -0.00000100232   -7.78540932970    4.00000000000
     -9.76206201519   -0.00000100232   -7.78540932970    4.00000000000
     -0.00000306899    5.92218606960  -11.03942897843    4.00000000000
     -0.00000306899   -5.92218807425  -11.03942897843    4.00000000000
     -6.50804236645    7.40273283758   -7.78540932970    4.00000000000
      6.50803622848    7.40273283758   -7.78540932970    4.00000000000
      6.50803622848   -7.40273484223   -7.78540932970    4.00000000000
     -6.50804236645   -7.40273484223   -7.78540932970    4.00000000000
     -6.50804236645    5.92218606960   -9.05750075987   -2.00000000000
      6.50803622848    5.92218606960   -9.05750075987   -2.00000000000
      6.50803622848   -5.92218807425   -9.05750075987   -2.00000000000
     -6.50804236645   -5.92218807425   -9.05750075987   -2.00000000000
     -0.00005220374   11.84437343371   -4.41288396045    4.00000000000
     -0.00005220374  -11.84437485399   -4.41288396045    4.00000000000
    -11.71498756057    1.48054591013   -4.51645509582   -2.00000000000
     11.71501055042    1.48054600613   -4.51644966155   -2.00000000000
     11.71501060560   -1.48054805070   -4.51644946585   -2.00000000000
    -11.71498763820   -1.48054821213   -4.51645492343   -2.00000000000
     -0.00000306899    8.88327960557   -9.05750075987   -2.00000000000
     -0.00000306899   -8.88328161021   -9.05750075987   -2.00000000000
     -3.25401326317   11.84437350720   -3.23990501486   -2.00000000000
      3.25402603430   11.84437350720   -3.23990501486   -2.00000000000
      3.25402603430  -11.84437478050   -3.23990501486   -2.00000000000
     -3.25401326317  -11.84437478050   -3.23990501486   -2.00000000000
      3.25401657974   -0.00000100232  -12.31152040860   -2.00000000000
     -3.25402271772   -0.00000100232  -12.31152040860   -2.00000000000
     -6.50804236645    8.88327960557   -6.51331789952   -2.00000000000
      6.50803622848    8.88327960557   -6.51331789952   -2.00000000000
      6.50803622848   -8.88328161021   -6.51331789952   -2.00000000000
     -6.50804236645   -8.88328161021   -6.51331789952   -2.00000000000
     -9.76205358197    5.92218600093   -5.78839374873   -2.00000000000
      9.76206431043    5.92218600093   -5.78839374873   -2.00000000000
      9.76206431043   -5.92218814292   -5.78839374873   -2.00000000000
     -9.76205358197   -5.92218814292   -5.78839374873   -2.00000000000
      6.50803622848   -0.00000100232  -11.03942897843    4.00000000000
     -6.50804236645   -0.00000100232  -11.03942897843    4.00000000000
     -9.76206201519    2.96109253364   -7.78540932970    4.00000000000
      9.76205587721    2.96109253364   -7.78540932970    4.00000000000
      9.76205587721   -2.96109453828   -7.78540932970    4.00000000000
     -9.76206201519   -2.96109453828   -7.78540932970    4.00000000000
     -0.00000306899   10.36382637355   -7.78540932970    4.00000000000
     -0.00000306899  -10.36382837819   -7.78540932970    4.00000000000
     -5.23595093628    4.44163930162  -11.03942897843   -2.00000000000
      5.23594479830    4.44163930162  -11.03942897843   -2.00000000000
      5.23594479830   -4.44164130627  -11.03942897843   -2.00000000000
     -5.23595093628   -4.44164130627  -11.03942897843   -2.00000000000
    -13.01607859493    0.00000000000    0.00000000000   -2.00000000000
     13.01607859493    0.00000000000    0.00000000000   -2.00000000000
     -0.00000306899   -0.00000100232  -13.02135719699   -2.00000000000
     -3.25402271772    2.96109253364  -12.31152040860   -2.00000000000
      3.25401657974    2.96109253364  -12.31152040860   -2.00000000000
      3.25401657974   -2.96109453828  -12.31152040860   -2.00000000000
     -3.25402271772   -2.96109453828  -12.31152040860   -2.00000000000
      9.76199144908    7.40273240730   -4.59991327640    4.00000000000
      9.76199125328   -7.40273429615   -4.59991284715    4.00000000000
     -9.76212644332    7.40273240730   -4.59991327640    4.00000000000
     -9.76212663912   -7.40273429615   -4.59991284715    4.00000000000
     -1.98193128755   10.36382637355   -7.78540932970   -2.00000000000
      1.98192514957   10.36382637355   -7.78540932970   -2.00000000000
      1.98192514957  -10.36382837819   -7.78540932970   -2.00000000000
     -1.98193128755  -10.36382837819   -7.78540932970   -2.00000000000
    -13.01607322496    1.48055149700   -1.06892606631    4.00000000000
     13.01608396490    1.48055149700   -1.06892606631    4.00000000000
     13.01608411594   -1.48055312386   -1.06892138720    4.00000000000
    -13.01607307392   -1.48055312386   -1.06892138720    4.00000000000
     -6.50804236645    2.96109253364  -11.03942897843    4.00000000000
      6.50803622848    2.96109253364  -11.03942897843    4.00000000000
      6.50803622848   -2.96109453828  -11.03942897843    4.00000000000
     -6.50804236645   -2.96109453828  -11.03942897843    4.00000000000
     13.01608301889   -0.00000111986   -2.54840301833   -2.00000000000
    -13.01607417097   -0.00000111986   -2.54840301833   -2.00000000000
     -9.76205598036    8.88328009748   -1.42716235830    4.00000000000
      9.76206191204    8.88328009748   -1.42716235830    4.00000000000
      9.76206191204   -8.88328111830   -1.42716235830    4.00000000000
     -9.76205598036   -8.88328111830   -1.42716235830    4.00000000000
    -10.98081324740    7.40273235128   -1.11149163807   -2.00000000000
     10.98081945346    7.40273225558   -1.11149385695   -2.00000000000
     10.98081952031   -7.40273429859   -1.11149503385   -2.00000000000
    -10.98081388475   -7.40273407290   -1.11149295951   -2.00000000000
    -11.71498763820    4.44163885980   -4.51645492343   -2.00000000000
     11.71501060560    4.44163902122   -4.51644946585   -2.00000000000
     11.71501055042   -4.44164106579   -4.51644966155   -2.00000000000
    -11.71498756057   -4.44164116180   -4.51645509582   -2.00000000000
    -13.01607897245    2.96109155033   -0.00000271770   -2.00000000000
     13.01607821741    2.96109155033   -0.00000271770   -2.00000000000
     13.01607821741   -2.96109552160   -0.00000271770   -2.00000000000
    -13.01607897245   -2.96109552160   -0.00000271770   -2.00000000000
     -1.27209449916    7.40273283758  -11.03942897843   -2.00000000000
      1.27208836119    7.40273283758  -11.03942897843   -2.00000000000
      1.27208836119   -7.40273484223  -11.03942897843   -2.00000000000
     -1.27209449916   -7.40273484223  -11.03942897843   -2.00000000000
     -0.00000306899    2.96109253364  -13.02135719699   -2.00000000000
     -0.00000306899   -2.96109453828  -13.02135719699   -2.00000000000
    -11.03415344536    1.48054576566   -7.78540932970   -2.00000000000
     11.03414730738    1.48054576566   -7.78540932970   -2.00000000000
     11.03414730738   -1.48054777030   -7.78540932970   -2.00000000000
    -11.03415344536   -1.48054777030   -7.78540932970   -2.00000000000
    -13.01607409499    2.96109199200   -2.54840438198   -2.00000000000
     13.01608309487    2.96109199200   -2.54840438198   -2.00000000000
     13.01608309487   -2.96109507993   -2.54840438198   -2.00000000000
    -13.01607409499   -2.96109507993   -2.54840438198   -2.00000000000
     -9.76205236604    8.88327917115   -3.23990596489   -2.00000000000
      9.76206552636    8.88327917115   -3.23990596489   -2.00000000000
      9.76206552636   -8.88328204462   -3.23990596489   -2.00000000000
     -9.76205236604   -8.88328204462   -3.23990596489   -2.00000000000
     -3.25402271772    7.40273283758  -11.03942897843    4.00000000000
      3.25401657974    7.40273283758  -11.03942897843    4.00000000000
      3.25401657974   -7.40273484223  -11.03942897843    4.00000000000
     -3.25402271772   -7.40273484223  -11.03942897843    4.00000000000
     13.01602639119   -0.00000071014   -4.41288396045    4.00000000000
    -13.01613079868   -0.00000071014   -4.41288396045    4.00000000000
    -13.01607307392    4.44163394806   -1.06892138720    4.00000000000
     13.01608411594    4.44163394806   -1.06892138720    4.00000000000
     13.01608396490   -4.44163557493   -1.06892606631    4.00000000000
    -13.01607322496   -4.44163557493   -1.06892606631    4.00000000000
     -9.76206201519    5.92218606960   -7.78540932970    4.00000000000
      9.76205587721    5.92218606960   -7.78540932970    4.00000000000
      9.76205587721   -5.92218807425   -7.78540932970    4.00000000000
     -9.76206201519   -5.92218807425   -7.78540932970    4.00000000000
     13.01602653134    2.96109301637   -4.41288206312    4.00000000000
     13.01602653134   -2.96109405556   -4.41288206312    4.00000000000
    -13.01613065852    2.96109301637   -4.41288206312    4.00000000000
    -13.01613065852   -2.96109405556   -4.41288206312    4.00000000000
     -6.50804236645    5.92218606960  -11.03942897843    4.00000000000
      6.50803622848    5.92218606960  -11.03942897843    4.00000000000
      6.50803622848   -5.92218807425  -11.03942897843    4.00000000000
     -6.50804236645   -5.92218807425  -11.03942897843    4.00000000000
    -13.01607859493    5.92218707193    0.00000000000   -2.00000000000
     13.01607859493    5.92218707193    0.00000000000   -2.00000000000
     13.01607859493   -5.92218707193    0.00000000000   -2.00000000000
    -13.01607859493   -5.92218707193    0.00000000000   -2.00000000000
    -13.01607417097    5.92218595207   -2.54840301833   -2.00000000000
     13.01608301889    5.92218595207   -2.54840301833   -2.00000000000
     13.01608301889   -5.92218819178   -2.54840301833   -2.00000000000
    -13.01607417097   -5.92218819178   -2.54840301833   -2.00000000000
    -14.31714663944    1.48054600613   -4.51644966155   -2.00000000000
     14.31716962929    1.48054591013   -4.51645509582   -2.00000000000
     14.31716955166   -1.48054821213   -4.51645492343   -2.00000000000
    -14.31714658426   -1.48054805070   -4.51644946585   -2.00000000000
    -15.05133773640    1.48054518365   -1.11149385695   -2.00000000000
     15.05134394246    1.48054527935   -1.11149163807   -2.00000000000
     15.05134330511   -1.48054700097   -1.11149295951   -2.00000000000
    -15.05133766955   -1.48054722666   -1.11149503385   -2.00000000000
      0.00000536997   13.32492564085   -1.06892606631    4.00000000000
      0.00000552101  -13.32492726771   -1.06892138720    4.00000000000
     -8.54329837208   10.36382691719   -1.11149503385   -2.00000000000
      8.54330400764   10.36382714288   -1.11149295951   -2.00000000000
      8.54330464500  -10.36382886450   -1.11149163807   -2.00000000000
     -8.54329843894  -10.36382896020   -1.11149385695   -2.00000000000
     -6.50803929747   11.84437414385    0.00000000000   -2.00000000000
      6.50803929747   11.84437414385    0.00000000000   -2.00000000000
      6.50803929747  -11.84437414385    0.00000000000   -2.00000000000
     -6.50803929747  -11.84437414385    0.00000000000   -2.00000000000
     -0.00000306899   11.84437314153   -6.51331789952   -2.00000000000
     -0.00000306899  -11.84437514617   -6.51331789952   -2.00000000000
     -2.03525914147   13.32491932750   -1.11149385695   -2.00000000000
      2.03526534753   13.32491942320   -1.11149163807   -2.00000000000
      2.03526471018  -13.32492114482   -1.11149295951   -2.00000000000
     -2.03525907462  -13.32492137051   -1.11149503385   -2.00000000000
     -3.25401428450   11.84437307286   -5.78839374873   -2.00000000000
      3.25402501297   11.84437307286   -5.78839374873   -2.00000000000
      3.25402501297  -11.84437521484   -5.78839374873   -2.00000000000
     -3.25401428450  -11.84437521484   -5.78839374873   -2.00000000000
     -7.78013379663    1.48054576566  -11.03942897843   -2.00000000000
      7.78012765865    1.48054576566  -11.03942897843   -2.00000000000
      7.78012765865   -1.48054777030  -11.03942897843   -2.00000000000
     -7.78013379663   -1.48054777030  -11.03942897843   -2.00000000000
     -3.25402271772    8.88327960557   -9.76733754826   -2.00000000000
      3.25401657974    8.88327960557   -9.76733754826   -2.00000000000
      3.25401657974   -8.88328161021   -9.76733754826   -2.00000000000
     -3.25402271772   -8.88328161021   -9.76733754826   -2.00000000000
     -8.48997058501    7.40273283758   -7.78540932970   -2.00000000000
      8.48996444703    7.40273283758   -7.78540932970   -2.00000000000
      8.48996444703   -7.40273484223   -7.78540932970   -2.00000000000
     -8.48997058501   -7.40273484223   -7.78540932970   -2.00000000000
     -4.52611414790   10.36382637355   -7.78540932970   -2.00000000000
      4.52610800992   10.36382637355   -7.78540932970   -2.00000000000
      4.52610800992  -10.36382837819   -7.78540932970   -2.00000000000
     -4.52611414790  -10.36382837819   -7.78540932970   -2.00000000000
     -7.80910728680   10.36382609315   -4.51644946585   -2.00000000000
      7.80913025419   10.36382593172   -4.51645492343   -2.00000000000
      7.80913033182  -10.36382823372   -4.51645509582   -2.00000000000
     -7.80910734197  -10.36382813772   -4.51644966155   -2.00000000000
     -6.50803487351   11.84437302399   -2.54840301833   -2.00000000000
      6.50804372142   11.84437302399   -2.54840301833   -2.00000000000
      6.50804372142  -11.84437526371   -2.54840301833   -2.00000000000
     -6.50803487351  -11.84437526371   -2.54840301833   -2.00000000000
      9.76205587721   -0.00000100232   -9.76733754826   -2.00000000000
     -9.76206201519   -0.00000100232   -9.76733754826   -2.00000000000
     -3.25402271772    5.92218606960  -12.31152040860   -2.00000000000
      3.25401657974    5.92218606960  -12.31152040860   -2.00000000000
      3.25401657974   -5.92218807425  -12.31152040860   -2.00000000000
     -3.25402271772   -5.92218807425  -12.31152040860   -2.00000000000
     -4.47277394994   13.32491942320   -1.11149163807   -2.00000000000
      4.47278015600   13.32491932750   -1.11149385695   -2.00000000000
      4.47278022285  -13.32492137051   -1.11149503385   -2.00000000000
     -4.47277458729  -13.32492114482   -1.11149295951   -2.00000000000
     -9.76206201519    2.96109253364   -9.76733754826   -2.00000000000
      9.76205587721    2.96109253364   -9.76733754826   -2.00000000000
      9.76205587721   -2.96109453828   -9.76733754826   -2.00000000000
     -9.76206201519   -2.96109453828   -9.76733754826   -2.00000000000
     -1.30106804451   13.32492014998   -4.51644966155   -2.00000000000
      1.30109103436   13.32492005398   -4.51645509582   -2.00000000000
      1.30109095673  -13.32492235598   -4.51645492343   -2.00000000000
     -1.30106798933  -13.32492219455   -4.51644946585   -2.00000000000
     -0.00000306899    8.88327960557  -11.03942897843    4.00000000000
     -0.00000306899   -8.88328161021  -11.03942897843    4.00000000000
    -11.03415344536    4.44163930162   -7.78540932970   -2.00000000000
     11.03414730738    4.44163930162   -7.78540932970   -2.00000000000
     11.03414730738   -4.44164130627   -7.78540932970   -2.00000000000
    -11.03415344536   -4.44164130627   -7.78540932970   -2.00000000000
     -6.50809150121   11.84437343371   -4.41288396045    4.00000000000
      6.50798709372   11.84437343371   -4.41288396045    4.00000000000
      6.50798709372  -11.84437485399   -4.41288396045    4.00000000000
     -6.50809150121  -11.84437485399   -4.41288396045    4.00000000000
     -7.78013379663    4.44163930162  -11.03942897843   -2.00000000000
      7.78012765865    4.44163930162  -11.03942897843   -2.00000000000
      7.78012765865   -4.44164130627  -11.03942897843   -2.00000000000
     -7.78013379663   -4.44164130627  -11.03942897843   -2.00000000000
     -6.50804236645    8.88327960557   -9.05750075987   -2.00000000000
      6.50803622848    8.88327960557   -9.05750075987   -2.00000000000
      6.50803622848   -8.88328161021   -9.05750075987   -2.00000000000
     -6.50804236645   -8.88328161021   -9.05750075987   -2.00000000000
     -5.23595093628    7.40273283758  -11.03942897843   -2.00000000000
      5.23594479830    7.40273283758  -11.03942897843   -2.00000000000
      5.23594479830   -7.40273484223  -11.03942897843   -2.00000000000
     -5.23595093628   -7.40273484223  -11.03942897843   -2.00000000000
     -0.00000306899    5.92218606960  -13.02135719699   -2.00000000000
     -0.00000306899   -5.92218807425  -13.02135719699   -2.00000000000
     -0.00000306899    1.48054576566  -14.29344862716    4.00000000000
     -0.00000306899   -1.48054777030  -14.29344862716    4.00000000000
     -9.76205343167    8.88327982762   -5.78839415273   -2.00000000000
      9.76206446073    8.88327982762   -5.78839415273   -2.00000000000
      9.76206446073   -8.88328138815   -5.78839415273   -2.00000000000
     -9.76205343167   -8.88328138815   -5.78839415273   -2.00000000000
     -3.25408714585   13.32491947923   -4.59991327640    4.00000000000
      3.25395215162   13.32491947923   -4.59991327640    4.00000000000
      3.25395195581  -13.32492136807   -4.59991284715    4.00000000000
     -3.25408734165  -13.32492136807   -4.59991284715    4.00000000000
     -6.50804236645   10.36382637355   -7.78540932970    4.00000000000
      6.50803622848   10.36382637355   -7.78540932970    4.00000000000
      6.50803622848  -10.36382837819   -7.78540932970    4.00000000000
     -6.50804236645  -10.36382837819   -7.78540932970    4.00000000000
     -1.98193128755    1.48054576566  -14.29344862716   -2.00000000000
      1.98192514957    1.48054576566  -14.29344862716   -2.00000000000
      1.98192514957   -1.48054777030  -14.29344862716   -2.00000000000
     -1.98193128755   -1.48054777030  -14.29344862716   -2.00000000000
     -3.25402271772   11.84437314153   -7.78540932970    4.00000000000
      3.25401657974   11.84437314153   -7.78540932970    4.00000000000
      3.25401657974  -11.84437514617   -7.78540932970    4.00000000000
     -3.25402271772  -11.84437514617   -7.78540932970    4.00000000000
     13.01607552594   -0.00000100232   -6.51331789952   -2.00000000000
    -13.01608166392   -0.00000100232   -6.51331789952   -2.00000000000
      6.50803622848   -0.00000100232  -13.02135719699   -2.00000000000
     -6.50804236645   -0.00000100232  -13.02135719699   -2.00000000000
    -11.71498756057    7.40273298205   -4.51645509582   -2.00000000000
     11.71501055042    7.40273307806   -4.51644966155   -2.00000000000
     11.71501060560   -7.40273512263   -4.51644946585   -2.00000000000
    -11.71498763820   -7.40273528405   -4.51645492343   -2.00000000000
      3.25401657974   -0.00000100232  -14.29344862716    4.00000000000
     -3.25402271772   -0.00000100232  -14.29344862716    4.00000000000
     -0.00000037752   14.80546569418   -0.00000271770   -2.00000000000
     -0.00000037752  -14.80546966545   -0.00000271770   -2.00000000000
     -9.76206201519    1.48054576566  -11.03942897843    4.00000000000
      9.76205587721    1.48054576566  -11.03942897843    4.00000000000
      9.76205587721   -1.48054777030  -11.03942897843    4.00000000000
     -9.76206201519   -1.48054777030  -11.03942897843    4.00000000000
    -13.01608166392    2.96109253364   -6.51331789952   -2.00000000000
     13.01607552594    2.96109253364   -6.51331789952   -2.00000000000
     13.01607552594   -2.96109453828   -6.51331789952   -2.00000000000
    -13.01608166392   -2.96109453828   -6.51331789952   -2.00000000000
     -6.50804236645    2.96109253364  -13.02135719699   -2.00000000000
      6.50803622848    2.96109253364  -13.02135719699   -2.00000000000
      6.50803622848   -2.96109453828  -13.02135719699   -2.00000000000
     -6.50804236645   -2.96109453828  -13.02135719699   -2.00000000000
     -6.50803392749   13.32492564085   -1.06892606631    4.00000000000
      6.50804466744   13.32492564085   -1.06892606631    4.00000000000
      6.50804481848  -13.32492726771   -1.06892138720    4.00000000000
     -6.50803377645  -13.32492726771   -1.06892138720    4.00000000000
     -0.00000306899   11.84437314153   -9.05750075987   -2.00000000000
     -0.00000306899  -11.84437514617   -9.05750075987   -2.00000000000
     -3.25402271772    2.96109253364  -14.29344862716    4.00000000000
      3.25401657974    2.96109253364  -14.29344862716    4.00000000000
      3.25401657974   -2.96109453828  -14.29344862716    4.00000000000
     -3.25402271772   -2.96109453828  -14.29344862716    4.00000000000
      9.76199125328   10.36382691963   -4.59991284715    4.00000000000
      9.76199144908  -10.36382880847   -4.59991327640    4.00000000000
     -9.76212663912   10.36382691963   -4.59991284715    4.00000000000
     -9.76212644332  -10.36382880847   -4.59991327640    4.00000000000
     13.01602639119    5.92218636178   -4.41288396045    4.00000000000
     13.01602639119   -5.92218778207   -4.41288396045    4.00000000000
    -13.01613079868    5.92218636178   -4.41288396045    4.00000000000
    -13.01613079868   -5.92218778207   -4.41288396045    4.00000000000
     -0.00000306899    4.44163930162  -14.29344862716    4.00000000000
     -0.00000306899   -4.44164130627  -14.29344862716    4.00000000000
     -5.20694826311   13.32492005398   -4.51645509582   -2.00000000000
      5.20697125296   13.32492014998   -4.51644966155   -2.00000000000
      5.20697130813  -13.32492219455   -4.51644946585   -2.00000000000
     -5.20694834074  -13.32492235598   -4.51645492343   -2.00000000000
     -6.50804236645   11.84437314153   -6.51331789952   -2.00000000000
      6.50803622848   11.84437314153   -6.51331789952   -2.00000000000
      6.50803622848  -11.84437514617   -6.51331789952   -2.00000000000
     -6.50804236645  -11.84437514617   -6.51331789952   -2.00000000000
    -13.01607322496    7.40273856892   -1.06892606631    4.00000000000
     13.01608396490    7.40273856892   -1.06892606631    4.00000000000
     13.01608411594   -7.40274019579   -1.06892138720    4.00000000000
    -13.01607307392   -7.40274019579   -1.06892138720    4.00000000000
      0.00000449994   14.80546613585   -2.54840438198   -2.00000000000
      0.00000449994  -14.80546922378   -2.54840438198   -2.00000000000
     -9.76206201519    5.92218606960   -9.76733754826   -2.00000000000
      9.76205587721    5.92218606960   -9.76733754826   -2.00000000000
      9.76205587721   -5.92218807425   -9.76733754826   -2.00000000000
     -9.76206201519   -5.92218807425   -9.76733754826   -2.00000000000
     -4.52611414790    1.48054576566  -14.29344862716   -2.00000000000
      4.52610800992    1.48054576566  -14.29344862716   -2.00000000000
      4.52610800992   -1.48054777030  -14.29344862716   -2.00000000000
     -4.52611414790   -1.48054777030  -14.29344862716   -2.00000000000
     -1.98193128755    4.44163930162  -14.29344862716   -2.00000000000
      1.98192514957    4.44163930162  -14.29344862716   -2.00000000000
      1.98192514957   -4.44164130627  -14.29344862716   -2.00000000000
     -1.98193128755   -4.44164130627  -14.29344862716   -2.00000000000
    -10.98081388475   10.36382714288   -1.11149295951   -2.00000000000
     10.98081952031   10.36382691719   -1.11149503385   -2.00000000000
     10.98081945346  -10.36382896020   -1.11149385695   -2.00000000000
    -10.98081324740  -10.36382886450   -1.11149163807   -2.00000000000
     -1.27209449916   10.36382637355  -11.03942897843   -2.00000000000
      1.27208836119   10.36382637355  -11.03942897843   -2.00000000000
      1.27208836119  -10.36382837819  -11.03942897843   -2.00000000000
     -1.27209449916  -10.36382837819  -11.03942897843   -2.00000000000
     -3.25401668289   14.80546716940   -1.42716235830    4.00000000000
      3.25402261457   14.80546716940   -1.42716235830    4.00000000000
      3.25402261457  -14.80546819023   -1.42716235830    4.00000000000
     -3.25401668289  -14.80546819023   -1.42716235830    4.00000000000
    -13.01608166392    1.48054576566   -7.78540932970    4.00000000000
     13.01607552594    1.48054576566   -7.78540932970    4.00000000000
     13.01607552594   -1.48054777030   -7.78540932970    4.00000000000
    -13.01608166392   -1.48054777030   -7.78540932970    4.00000000000
     -9.76206201519    8.88327960557   -7.78540932970    4.00000000000
      9.76205587721    8.88327960557   -7.78540932970    4.00000000000
      9.76205587721   -8.88328161021   -7.78540932970    4.00000000000
     -9.76206201519   -8.88328161021   -7.78540932970    4.00000000000
     -9.76206201519    4.44163930162  -11.03942897843    4.00000000000
      9.76205587721    4.44163930162  -11.03942897843    4.00000000000
      9.76205587721   -4.44164130627  -11.03942897843    4.00000000000
     -9.76206201519   -4.44164130627  -11.03942897843    4.00000000000
    -11.03415344536    7.40273283758   -7.78540932970   -2.00000000000
     11.03414730738    7.40273283758   -7.78540932970   -2.00000000000
     11.03414730738   -7.40273484223   -7.78540932970   -2.00000000000
    -11.03415344536   -7.40273484223   -7.78540932970   -2.00000000000
     -7.78013379663    7.40273283758  -11.03942897843   -2.00000000000
      7.78012765865    7.40273283758  -11.03942897843   -2.00000000000
      7.78012765865   -7.40273484223  -11.03942897843   -2.00000000000
     -7.78013379663   -7.40273484223  -11.03942897843   -2.00000000000
     -9.76205540302   11.84437302349   -1.42716202606    4.00000000000
      9.76206248938   11.84437302349   -1.42716202606    4.00000000000
      9.76206248938  -11.84437526421   -1.42716202606    4.00000000000
     -9.76205540302  -11.84437526421   -1.42716202606    4.00000000000
     -0.00000306899   13.32491990951   -7.78540932970    4.00000000000
     -0.00000306899  -13.32492191415   -7.78540932970    4.00000000000
     -0.00005206359   14.80546716022   -4.41288206312    4.00000000000
     -0.00005206359  -14.80546819941   -4.41288206312    4.00000000000
     -3.25402271772   10.36382637355  -11.03942897843    4.00000000000
      3.25401657974   10.36382637355  -11.03942897843    4.00000000000
      3.25401657974  -10.36382837819  -11.03942897843    4.00000000000
     -3.25402271772  -10.36382837819  -11.03942897843    4.00000000000
     -8.48997058501   10.36382637355   -7.78540932970   -2.00000000000
      8.48996444703   10.36382637355   -7.78540932970   -2.00000000000
      8.48996444703  -10.36382837819   -7.78540932970   -2.00000000000
     -8.48997058501  -10.36382837819   -7.78540932970   -2.00000000000
     -3.25401306857   14.80546624308   -3.23990596489   -2.00000000000
      3.25402622890   14.80546624308   -3.23990596489   -2.00000000000
      3.25402622890  -14.80546911655   -3.23990596489   -2.00000000000
     -3.25401306857  -14.80546911655   -3.23990596489   -2.00000000000
     -3.25402271772    8.88327960557  -12.31152040860   -2.00000000000
      3.25401657974    8.88327960557  -12.31152040860   -2.00000000000
      3.25401657974   -8.88328161021  -12.31152040860   -2.00000000000
     -3.25402271772   -8.88328161021  -12.31152040860   -2.00000000000
     -1.98193128755   13.32491990951   -7.78540932970   -2.00000000000
      1.98192514957   13.32491990951   -7.78540932970   -2.00000000000
      1.98192514957  -13.32492191415   -7.78540932970   -2.00000000000
     -1.98193128755  -13.32492191415   -7.78540932970   -2.00000000000
     -0.00000306899   -0.00000100232  -15.56554005734   -2.00000000000
     -6.50804236645    8.88327960557  -11.03942897843    4.00000000000
      6.50803622848    8.88327960557  -11.03942897843    4.00000000000
      6.50803622848   -8.88328161021  -11.03942897843    4.00000000000
     -6.50804236645   -8.88328161021  -11.03942897843    4.00000000000
     -4.52611414790    4.44163930162  -14.29344862716   -2.00000000000
      4.52610800992    4.44163930162  -14.29344862716   -2.00000000000
      4.52610800992   -4.44164130627  -14.29344862716   -2.00000000000
     -4.52611414790   -4.44164130627  -14.29344862716   -2.00000000000
    -14.31714658426    4.44163902122   -4.51644946585   -2.00000000000
     14.31716955166    4.44163885980   -4.51645492343   -2.00000000000
     14.31716962929   -4.44164116180   -4.51645509582   -2.00000000000
    -14.31714663944   -4.44164106579   -4.51644966155   -2.00000000000
     -9.76205256063   11.84437350720   -3.23990501486   -2.00000000000
      9.76206533176   11.84437350720   -3.23990501486   -2.00000000000
      9.76206533176  -11.84437478050   -3.23990501486   -2.00000000000
     -9.76205256063  -11.84437478050   -3.23990501486   -2.00000000000
     -3.25402271772   11.84437314153   -9.76733754826   -2.00000000000
      3.25401657974   11.84437314153   -9.76733754826   -2.00000000000
      3.25401657974  -11.84437514617   -9.76733754826   -2.00000000000
     -3.25402271772  -11.84437514617   -9.76733754826   -2.00000000000
      9.76205587721   -0.00000100232  -12.31152040860   -2.00000000000
     -9.76206201519   -0.00000100232  -12.31152040860   -2.00000000000
    -13.01608166392    5.92218606960   -6.51331789952   -2.00000000000
     13.01607552594    5.92218606960   -6.51331789952   -2.00000000000
     13.01607552594   -5.92218807425   -6.51331789952   -2.00000000000
    -13.01608166392   -5.92218807425   -6.51331789952   -2.00000000000
     -6.50804236645    5.92218606960  -13.02135719699   -2.00000000000
      6.50803622848    5.92218606960  -13.02135719699   -2.00000000000
      6.50803622848   -5.92218807425  -13.02135719699   -2.00000000000
     -6.50804236645   -5.92218807425  -13.02135719699   -2.00000000000
    -15.05133766955    4.44163984526   -1.11149503385   -2.00000000000
     15.05134330511    4.44164007096   -1.11149295951   -2.00000000000
     15.05134394246   -4.44164179257   -1.11149163807   -2.00000000000
    -15.05133773640   -4.44164188827   -1.11149385695   -2.00000000000
    -13.01607897245    8.88327862225   -0.00000271770   -2.00000000000
     13.01607821741    8.88327862225   -0.00000271770   -2.00000000000
     13.01607821741   -8.88328259352   -0.00000271770   -2.00000000000
    -13.01607897245   -8.88328259352   -0.00000271770   -2.00000000000
     -0.00000306899    8.88327960557  -13.02135719699   -2.00000000000
     -0.00000306899   -8.88328161021  -13.02135719699   -2.00000000000
     -6.50804236645    1.48054576566  -14.29344862716    4.00000000000
      6.50803622848    1.48054576566  -14.29344862716    4.00000000000
      6.50803622848   -1.48054777030  -14.29344862716    4.00000000000
     -6.50804236645   -1.48054777030  -14.29344862716    4.00000000000
    -13.01608166392    4.44163930162   -7.78540932970    4.00000000000
     13.01607552594    4.44163930162   -7.78540932970    4.00000000000
     13.01607552594   -4.44164130627   -7.78540932970    4.00000000000
    -13.01608166392   -4.44164130627   -7.78540932970    4.00000000000
     -3.25402271772    5.92218606960  -14.29344862716    4.00000000000
      3.25401657974    5.92218606960  -14.29344862716    4.00000000000
      3.25401657974   -5.92218807425  -14.29344862716    4.00000000000
     -3.25402271772   -5.92218807425  -14.29344862716    4.00000000000
     -0.00000306899    2.96109253364  -15.56554005734   -2.00000000000
     -0.00000306899   -2.96109453828  -15.56554005734   -2.00000000000
     13.01607552594   -0.00000100232   -9.05750075987   -2.00000000000
    -13.01608166392   -0.00000100232   -9.05750075987   -2.00000000000
     -8.54329843894   13.32491932750   -1.11149385695   -2.00000000000
      8.54330464500   13.32491942320   -1.11149163807   -2.00000000000
      8.54330400764  -13.32492114482   -1.11149295951   -2.00000000000
     -8.54329837208  -13.32492137051   -1.11149503385   -2.00000000000
    -13.01607409499    8.88327906392   -2.54840438198   -2.00000000000
     13.01608309487    8.88327906392   -2.54840438198   -2.00000000000
     13.01608309487   -8.88328215185   -2.54840438198   -2.00000000000
    -13.01607409499   -8.88328215185   -2.54840438198   -2.00000000000
     -9.76206201519    2.96109253364  -12.31152040860   -2.00000000000
      9.76205587721    2.96109253364  -12.31152040860   -2.00000000000
      9.76205587721   -2.96109453828  -12.31152040860   -2.00000000000
     -9.76206201519   -2.96109453828  -12.31152040860   -2.00000000000
     -5.23595093628   10.36382637355  -11.03942897843   -2.00000000000
      5.23594479830   10.36382637355  -11.03942897843   -2.00000000000
      5.23594479830  -10.36382837819  -11.03942897843   -2.00000000000
     -5.23595093628  -10.36382837819  -11.03942897843   -2.00000000000
     -4.52611414790   13.32491990951   -7.78540932970   -2.00000000000
      4.52610800992   13.32491990951   -7.78540932970   -2.00000000000
      4.52610800992  -13.32492191415   -7.78540932970   -2.00000000000
     -4.52611414790  -13.32492191415   -7.78540932970   -2.00000000000
     -7.80910734197   13.32492014998   -4.51644966155   -2.00000000000
      7.80913033182   13.32492005398   -4.51645509582   -2.00000000000
      7.80913025419  -13.32492235598   -4.51645492343   -2.00000000000
     -7.80910728680  -13.32492219455   -4.51644946585   -2.00000000000
     -0.00000306899    7.40273283758  -14.29344862716    4.00000000000
     -0.00000306899   -7.40273484223  -14.29344862716    4.00000000000
    -13.01608166392    2.96109253364   -9.05750075987   -2.00000000000
     13.01607552594    2.96109253364   -9.05750075987   -2.00000000000
     13.01607552594   -2.96109453828   -9.05750075987   -2.00000000000
    -13.01608166392   -2.96109453828   -9.05750075987   -2.00000000000
     -6.50803967498   14.80546569418   -0.00000271770   -2.00000000000
      6.50803891995   14.80546569418   -0.00000271770   -2.00000000000
      6.50803891995  -14.80546966545   -0.00000271770   -2.00000000000
     -6.50803967498  -14.80546966545   -0.00000271770   -2.00000000000
[...]
 5429   A         12.373399      12.373399
 5430   A         12.375844      12.375844
 5431   A         12.379256      12.379256
 5432   A         12.380516      12.380516
 5433   A         12.381052      12.381052
 5434   A         12.382662      12.382662
 5435   A         12.385911      12.385911
 5436   A         12.385948      12.385948
 5437   A         12.386741      12.386741
 5438   A         12.388532      12.388532
 5439   A         12.390166      12.390166
 5440   A         12.390991      12.390991
 5441   A         12.393160      12.393160
 5442   A         12.393854      12.393854
 5443   A         12.394489      12.394489
 5444   A         12.396233      12.396233
 5445   A         12.398772      12.398772
 5446   A         12.400284      12.400284
 5447   A         12.402055      12.402055
 5448   A         12.403259      12.403259
 5449   A         12.405834      12.405834
 5450   A         12.408911      12.408911
 5451   A         12.411211      12.411211
 5452   A         12.411686      12.411686
 5453   A         12.415414      12.415414
 5454   A         12.417990      12.417990
 5455   A         12.418210      12.418210
 5456   A         12.421519      12.421519
 5457   A         12.422393      12.422393
 5458   A         12.423601      12.423601
 5459   A         12.429849      12.429849
 5460   A         12.430759      12.430759
 5461   A         12.432446      12.432446
 5462   A         12.433872      12.433872
 5463   A         12.435597      12.435597
 5464   A         12.438036      12.438036
 5465   A         12.439533      12.439533
 5466   A         12.443125      12.443125
 5467   A         12.444454      12.444454
 5468   A         12.444748      12.444748
 5469   A         12.452385      12.452385
 5470   A         12.453375      12.453375
 5471   A         12.453497      12.453497
 5472   A         12.456777      12.456777
 5473   A         12.463622      12.463622
 5474   A         12.464962      12.464962
 5475   A         12.467357      12.467357
 5476   A         12.469127      12.469127
 5477   A         12.469523      12.469523
 5478   A         12.471550      12.471550
 5479   A         12.472361      12.472361
 5480   A         12.474157      12.474157
 5481   A         12.475140      12.475140
 5482   A         12.480146      12.480146
 5483   A         12.482627      12.482627
 5484   A         12.484988      12.484988
 5485   A         12.485260      12.485260
 5486   A         12.487256      12.487256
 5487   A         12.487481      12.487481
 5488   A         12.488944      12.488944
 5489   A         12.494111      12.494111
 5490   A         12.496024      12.496024
 5491   A         12.497750      12.497750
 5492   A         12.499769      12.499769
 5493   A         12.503016      12.503016
 5494   A         12.504756      12.504756
 5495   A         12.512468      12.512468
 5496   A         12.512986      12.512986
 5497   A         12.517475      12.517475
 5498   A         12.519030      12.519030
 5499   A         12.519915      12.519915
 5500   A         12.522627      12.522627
 5501   A         12.523987      12.523987
 5502   A         12.528445      12.528445
 5503   A         12.534694      12.534694
 5504   A         12.538250      12.538250
 5505   A         12.540031      12.540031
 5506   A         12.540296      12.540296
 5507   A         12.544138      12.544138
 5508   A         12.544936      12.544936
 5509   A         12.546550      12.546550
 5510   A         12.549207      12.549207
 5511   A         12.552504      12.552504
 5512   A         12.553629      12.553629
 5513   A         12.560338      12.560338
 5514   A         12.560412      12.560412
 5515   A         12.560444      12.560444
 5516   A         12.561517      12.561517
 5517   A         12.566625      12.566625
 5518   A         12.578246      12.578246
 5519   A         12.579505      12.579505
 5520   A         12.583900      12.583900
 5521   A         12.584419      12.584419
 5522   A         12.584756      12.584756
 5523   A         12.590415      12.590415
 5524   A         12.590765      12.590765
 5525   A         12.593055      12.593055
 5526   A         12.593945      12.593945
 5527   A         12.597940      12.597940
 5528   A         12.605322      12.605322
 5529   A         12.608556      12.608556
 5530   A         12.609338      12.609338
 5531   A         12.610676      12.610676
 5532   A         12.617163      12.617163
 5533   A         12.625675      12.625675
 5534   A         12.626745      12.626745
 5535   A         12.628920      12.628920
 5536   A         12.631566      12.631566
 5537   A         12.635782      12.635782
 5538   A         12.640967      12.640967
 5539   A         12.646348      12.646348
 5540   A         12.648096      12.648096
 5541   A         12.654354      12.654354
 5542   A         12.656496      12.656496
 5543   A         12.664551      12.664551
 5544   A         12.671538      12.671538
 5545   A         12.672926      12.672926
 5546   A         12.679967      12.679967
 5547   A         12.682858      12.682858
 5548   A         12.683155      12.683155
 5549   A         12.689507      12.689507
 5550   A         12.699116      12.699116
 5551   A         12.700981      12.700981
 5552   A         12.702726      12.702726
 5553   A         12.703432      12.703432
 5554   A         12.715481      12.715481
 5555   A         12.715851      12.715851
 5556   A         12.722196      12.722196
 5557   A         12.727894      12.727894
 5558   A         12.728282      12.728282
 5559   A         12.732031      12.732031
 5560   A         12.734121      12.734121
 5561   A         12.744025      12.744025
 5562   A         12.748350      12.748350
 5563   A         12.749361      12.749361
 5564   A         12.752943      12.752943
 5565   A         12.761100      12.761100
 5566   A         12.767149      12.767149
 5567   A         12.783181      12.783181
 5568   A         12.800447      12.800447
 5569   A         12.800925      12.800925
 5570   A         12.811397      12.811397
 5571   A         12.823675      12.823675
 5572   A         12.829779      12.829779
 5573   A         12.832914      12.832914
 5574   A         12.836255      12.836255
 5575   A         12.843078      12.843078
 5576   A         12.844719      12.844719
 5577   A         12.853668      12.853668
 5578   A         12.861061      12.861061
 5579   A         12.861490      12.861490
 5580   A         12.867594      12.867594
 5581   A         12.877221      12.877221
 5582   A         12.879481      12.879481
 5583   A         12.881487      12.881487
 5584   A         12.885923      12.885923
 5585   A         12.896983      12.896983
 5586   A         12.901755      12.901755
 5587   A         12.907568      12.907568
 5588   A         12.908431      12.908431
 5589   A         12.918561      12.918561
 5590   A         12.947900      12.947900
 5591   A         12.960738      12.960738
 5592   A         12.964822      12.964822
 5593   A         12.971874      12.971874
 5594   A         12.976146      12.976146
 5595   A         12.978749      12.978749
 5596   A         12.989441      12.989441
 5597   A         13.004909      13.004909
 5598   A         13.019841      13.019841
 5599   A         13.020134      13.020134
 5600   A         13.022318      13.022318
 5601   A         13.029465      13.029465
 5602   A         13.044033      13.044033
 5603   A         13.051152      13.051152
 5604   A         13.052649      13.052649
 5605   A         13.053400      13.053400
 5606   A         13.065437      13.065437
 5607   A         13.070144      13.070144
 5608   A         13.071591      13.071591
 5609   A         13.083731      13.083731
 5610   A         13.091745      13.091745
 5611   A         13.093864      13.093864
 5612   A         13.098837      13.098837
 5613   A         13.103677      13.103677
 5614   A         13.106136      13.106136
 5615   A         13.117235      13.117235
 5616   A         13.117960      13.117960
 5617   A         13.124989      13.124989
 5618   A         13.137875      13.137875
 5619   A         13.140200      13.140200
 5620   A         13.143853      13.143853
 5621   A         13.156684      13.156684
 5622   A         13.161721      13.161721
 5623   A         13.169339      13.169339
 5624   A         13.173387      13.173387
 5625   A         13.193038      13.193038
 5626   A         13.194486      13.194486
 5627   A         13.204807      13.204807
 5628   A         13.210909      13.210909
 5629   A         13.217376      13.217376
 5630   A         13.223796      13.223796
 5631   A         13.236077      13.236077
 5632   A         13.241106      13.241106
 5633   A         13.244791      13.244791
 5634   A         13.248643      13.248643
 5635   A         13.252642      13.252642
 5636   A         13.260956      13.260956
 5637   A         13.291163      13.291163
 5638   A         13.302172      13.302172
 5639   A         13.318398      13.318398
 5640   A         13.330550      13.330550
 5641   A         13.335357      13.335357
 5642   A         13.351746      13.351746
 5643   A         13.357780      13.357780
 5644   A         13.379031      13.379031
 5645   A         13.379466      13.379466
 5646   A         13.396957      13.396957
 5647   A         13.403165      13.403165
 5648   A         13.430789      13.430789
 5649   A         13.436649      13.436649
 5650   A         13.440723      13.440723
 5651   A         13.440872      13.440872
 5652   A         13.445199      13.445199
 5653   A         13.466370      13.466370
 5654   A         13.467127      13.467127
 5655   A         13.471864      13.471864
 5656   A         13.490560      13.490560
 5657   A         13.501832      13.501832
 5658   A         13.533234      13.533234
 5659   A         13.543215      13.543215
 5660   A         13.571535      13.571535
 5661   A         13.577463      13.577463
 5662   A         13.634151      13.634151
 5663   A         13.645113      13.645113
 5664   A         13.680623      13.680623
 5665   A         13.683417      13.683417
 5666   A         13.687297      13.687297
 5667   A         13.699586      13.699586
 5668   A         13.734819      13.734819
 5669   A         13.742747      13.742747
 5670   A         13.750736      13.750736
 5671   A         13.771631      13.771631
 5672   A         13.794378      13.794378
 5673   A         13.828705      13.828705
 5674   A         13.843251      13.843251
 5675   A         13.870990      13.870990
 5676   A         13.905880      13.905880
 5677   A         13.909152      13.909152
 5678   A         13.924399      13.924399
 5679   A         13.925469      13.925469
 5680   A         13.943872      13.943872
 5681   A         13.971590      13.971590
 5682   A         13.975268      13.975268
 5683   A         13.976231      13.976231
 5684   A         14.055163      14.055163
 5685   A         14.146819      14.146819
 5686   A         24.661782      24.661782
 5687   A         24.664658      24.664658
 5688   A         24.695949      24.695949
 5689   A         24.696157      24.696157
 5690   A         24.897622      24.897622
 5691   A         24.903728      24.903728
 5692   A         24.985334      24.985334
 5693   A         24.988231      24.988231
 5694   A         25.059493      25.059493
 5695   A         25.060104      25.060104
 5696   A         25.065887      25.065887
 5697   A         25.068224      25.068224
 5698   A         25.082156      25.082156
 5699   A         25.083388      25.083388
 5700   A         25.188390      25.188390
 5701   A         25.192835      25.192835
 5702   A         25.198864      25.198864
 5703   A         25.247352      25.247352
 5704   A         25.256948      25.256948
 5705   A         25.319095      25.319095
 5706   A         25.408980      25.408980
 5707   A         47.165811      47.165811
 5708   A         47.169708      47.169708
 5709   A         47.196393      47.196393
 5710   A         47.201746      47.201746
 5711   A         47.238519      47.238519
 5712   A         47.242449      47.242449
 5713   A         47.243541      47.243541
 5714   A         47.249536      47.249536
 5715   A         47.254426      47.254426
 5716   A         47.260253      47.260253
 5717   A         47.281815      47.281815
 5718   A         47.317968      47.317968
 5719   A         47.323792      47.323792
 5720   A         47.324553      47.324553
 5721   A         47.337444      47.337444
 5722   A         47.345841      47.345841
 5723   A         47.352112      47.352112
 5724   A         47.353561      47.353561
 5725   A         47.356052      47.356052
 5726   A         47.384295      47.384295
 5727   A         47.386051      47.386051
 5728   A         47.401863      47.401863
 5729   A         47.424190      47.424190
 5730   A         47.426960      47.426960
 5731   A         47.448791      47.448791
 5732   A         47.451521      47.451521
 5733   A         47.457816      47.457816
 5734   A         47.472558      47.472558
 5735   A         47.476210      47.476210
 5736   A         47.476773      47.476773
 5737   A         47.495236      47.495236
 5738   A         47.502495      47.502495
 5739   A         47.505829      47.505829
 5740   A         47.507284      47.507284
 5741   A         47.509000      47.509000
 5742   A         47.512755      47.512755
 5743   A         47.520781      47.520781
 5744   A         47.525927      47.525927
 5745   A         47.537828      47.537828
 5746   A         47.570106      47.570106
 5747   A         47.578303      47.578303
 5748   A         47.611745      47.611745
 5749   A         47.613528      47.613528
 5750   A         47.637990      47.637990
 5751   A         47.640275      47.640275
 5752   A         47.684603      47.684603
 5753   A         47.696426      47.696426
 5754   A         47.705531      47.705531
 5755   A         47.708674      47.708674
 5756   A         47.741374      47.741374
 5757   A         47.750809      47.750809
 5758   A         47.753784      47.753784
 5759   A         47.766464      47.766464
 5760   A         47.769680      47.769680
 5761   A         47.789684      47.789684
 5762   A         47.795440      47.795440
 5763   A         47.820227      47.820227
 5764   A         47.851120      47.851120
 5765   A         47.898759      47.898759
 5766   A         47.913467      47.913467
 5767   A         47.916764      47.916764
 5768   A         47.919194      47.919194
 5769   A         47.927769      47.927769
 5770   A         47.960689      47.960689
 5771   A         47.985460      47.985460
 5772   A         48.006011      48.006011
 5773   A         48.009305      48.009305
 5774   A         48.058268      48.058268
 5775   A         48.148783      48.148783
 5776   A         81.273145      81.273145
 5777   A         81.275696      81.275696
 5778   A         81.304351      81.304351
 5779   A         81.304986      81.304986
 5780   A         81.498366      81.498366
 5781   A         81.504141      81.504141
 5782   A         81.596443      81.596443
 5783   A         81.599485      81.599485
 5784   A         81.664398      81.664398
 5785   A         81.665652      81.665652
 5786   A         81.673324      81.673324
 5787   A         81.673646      81.673646
 5788   A         81.692587      81.692587
 5789   A         81.693357      81.693357
 5790   A         81.786655      81.786655
 5791   A         81.790804      81.790804
 5792   A         81.796902      81.796902
 5793   A         81.843399      81.843399
 5794   A         81.850046      81.850046
 5795   A         81.903709      81.903709
 5796   A         81.991225      81.991225
 5797   A        251.597502     251.597502
 5798   A        251.602049     251.602049
 5799   A        251.639421     251.639421
 5800   A        251.644946     251.644946
 5801   A        251.682306     251.682306
 5802   A        251.687043     251.687043
 5803   A        251.687540     251.687540
 5804   A        251.698090     251.698090
 5805   A        251.700957     251.700957
 5806   A        251.710713     251.710713
 5807   A        251.737867     251.737867
 5808   A        251.774612     251.774612
 5809   A        251.776897     251.776897
 5810   A        251.783314     251.783314
 5811   A        251.797392     251.797392
 5812   A        251.801316     251.801316
 5813   A        251.809794     251.809794
 5814   A        251.816673     251.816673
 5815   A        251.816769     251.816769
 5816   A        251.847951     251.847951
 5817   A        251.853604     251.853604
 5818   A        251.873731     251.873731
 5819   A        251.898506     251.898506
 5820   A        251.905225     251.905225
 5821   A        251.925113     251.925113
 5822   A        251.931373     251.931373
 5823   A        251.937448     251.937448
 5824   A        251.949165     251.949165
 5825   A        251.954728     251.954728
 5826   A        251.955520     251.955520
 5827   A        251.974895     251.974895
 5828   A        251.980672     251.980672
 5829   A        251.987097     251.987097
 5830   A        251.990211     251.990211
 5831   A        251.994840     251.994840
 5832   A        252.000558     252.000558
 5833   A        252.004293     252.004293
 5834   A        252.010565     252.010565
 5835   A        252.024649     252.024649
 5836   A        252.053266     252.053266
 5837   A        252.062215     252.062215
 5838   A        252.107312     252.107312
 5839   A        252.109771     252.109771
 5840   A        252.143249     252.143249
 5841   A        252.144687     252.144687
 5842   A        252.195544     252.195544
 5843   A        252.203583     252.203583
 5844   A        252.209873     252.209873
 5845   A        252.211699     252.211699
 5846   A        252.253277     252.253277
 5847   A        252.262454     252.262454
 5848   A        252.263140     252.263140
 5849   A        252.280581     252.280581
 5850   A        252.285783     252.285783
 5851   A        252.309006     252.309006
 5852   A        252.317791     252.317791
 5853   A        252.337596     252.337596
 5854   A        252.373836     252.373836
 5855   A        252.433320     252.433320
 5856   A        252.449009     252.449009
 5857   A        252.450505     252.450505
 5858   A        252.451404     252.451404
 5859   A        252.471509     252.471509
 5860   A        252.508304     252.508304
 5861   A        252.534205     252.534205
 5862   A        252.564551     252.564551
 5863   A        252.570770     252.570770
 5864   A        252.612716     252.612716
 5865   A        252.722521     252.722521
 5866   A        513.992777     513.992777
 5867   A        513.996778     513.996778
 5868   A        514.046539     514.046539
 5869   A        514.048358     514.048358
 5870   A        514.392755     514.392755
 5871   A        514.402630     514.402630
 5872   A        514.539367     514.539367
 5873   A        514.545661     514.545661
 5874   A        514.680923     514.680923
 5875   A        514.687234     514.687234
 5876   A        514.714821     514.714821
 5877   A        514.716582     514.716582
 5878   A        514.723325     514.723325
 5879   A        514.731494     514.731494
 5880   A        514.927385     514.927385
 5881   A        514.946018     514.946018
 5882   A        514.952801     514.952801
 5883   A        515.022314     515.022314
 5884   A        515.024626     515.024626
 5885   A        515.106208     515.106208
 5886   A        515.285489     515.285489
 
 RETURNING FROM SCF ALGORITHM
 ======================================================================
 
 ************************ 2021-12-03 22:02:12 *************************
                      Normal termination of mrcc.
 **********************************************************************
