 vasp.6.2.0 18Jan21 (build Mar 03 2021 13:27:41) complex                        
  
 executed on             LinuxIFC date 2021.10.08  23:42:22
 running on  120 total cores
 distrk:  each k-point on  120 cores,    1 groups
 distr:  one band on NCORE=  20 cores,    6 groups


--------------------------------------------------------------------------------------------------------


 INCAR:
   SYSTEM = TiO2-rutile
   ISMEAR = 0
   SIGMA = 0.05
   EDIFF = 1E-5
   ALGO = Fast
   ISYM = 0
   GGA = PE
   IBRION = -1
   NSW = 0
   EDIFFG = -0.01
   ENCUT = 500
   PREC = Normal
   LASPH = .TRUE.
   LREAL = Auto
   ISPIN = 1
   NELM = 300
   NCORE = 20
   LWAVE = .FALSE.
   LCHARG = .FALSE.
   LORBIT = 11

 POTCAR:    PAW_PBE O 08Apr2002                   
 POTCAR:    PAW_PBE Ti_sv 26Sep2005               
 POTCAR:    PAW_PBE O 08Apr2002                   
   SHA256 =  818f92134a0a090dccd8ba1447fa70422a3b330e708bb4f08108d8ae51209ddf O/POTCAR              
   COPYR  = (c) Copyright 08Apr2002 Georg Kresse                                                    
   COPYR  = This file is part of the software VASP. Any use, copying, and all other rights are regul
   COPYR  = If you do not have a valid VASP license, you may not use, copy or distribute this file. 
   VRHFIN =O: s2p4                                                                                  
   LEXCH  = PE                                                                                      
   EATOM  =   432.3788 eV,   31.7789 Ry                                                             
                                                                                                    
   TITEL  = PAW_PBE O 08Apr2002                                                                     
   LULTRA =        F    use ultrasoft PP ?                                                          
   IUNSCR =        1    unscreen: 0-lin 1-nonlin 2-no                                               
   RPACOR =    1.200    partial core radius                                                         
   POMASS =   16.000; ZVAL   =    6.000    mass and valenz                                          
   RCORE  =    1.520    outmost cutoff radius                                                       
   RWIGS  =    1.550; RWIGS  =    0.820    wigner-seitz radius (au A)                               
   ENMAX  =  400.000; ENMIN  =  300.000 eV                                                          
   ICORE  =        2    local potential                                                             
   LCOR   =        T    correct aug charges                                                         
   LPAW   =        T    paw PP                                                                      
   EAUG   =  605.392                                                                                
   DEXC   =    0.000                                                                                
   RMAX   =    1.553    core radius for proj-oper                                                   
   RAUG   =    1.300    factor for augmentation sphere                                              
   RDEP   =    1.550    radius for radial grids                                                     
   RDEPT  =    1.329    core radius for aug-charge                                                  
                                                                                                    
   Atomic configuration                                                                             
    4 entries                                                                                       
     n  l   j            E        occ.                                                              
     1  0  0.50      -514.6923   2.0000                                                             
     2  0  0.50       -23.9615   2.0000                                                             
     2  1  0.50        -9.0305   4.0000                                                             
     3  2  1.50        -9.5241   0.0000                                                             
   Description                                                                                      
     l       E           TYP  RCUT    TYP  RCUT                                                     
     0    -23.9615318     23  1.200                                                                 
     0     -9.5240782     23  1.200                                                                 
     1     -9.0304911     23  1.520                                                                 
     1      8.1634956     23  1.520                                                                 
     2     -9.5240782      7  1.500                                                                 
  local pseudopotential read in
  partial core-charges read in
  partial kinetic energy density read in
  kinetic energy density of atom read in
  atomic valenz-charges read in
  non local Contribution for L=           0  read in
    real space projection operators read in
  non local Contribution for L=           0  read in
    real space projection operators read in
  non local Contribution for L=           1  read in
    real space projection operators read in
  non local Contribution for L=           1  read in
    real space projection operators read in
    PAW grid and wavefunctions read in
 
   number of l-projection  operators is LMAX  =           4
   number of lm-projection operators is LMMAX =           8
 
 POTCAR:    PAW_PBE Ti_sv 26Sep2005               
   SHA256 =  4d747badb5a5ea28d858fbac70885b3f8929d6fd9e5b0dbe1ecb9878dc164da1 Ti_sv/POTCAR          
   COPYR  = (c) Copyright 26Sep2005 Georg Kresse                                                    
   COPYR  = This file is part of the software VASP. Any use, copying, and all other rights are regul
   COPYR  = If you do not have a valid VASP license, you may not use, copy or distribute this file. 
   VRHFIN =Ti: 3p4s3d                                                                               
   LEXCH  = PE                                                                                      
   EATOM  =  1588.0892 eV,  116.7213 Ry                                                             
                                                                                                    
   TITEL  = PAW_PBE Ti_sv 26Sep2005                                                                 
   LULTRA =        F    use ultrasoft PP ?                                                          
   IUNSCR =        1    unscreen: 0-lin 1-nonlin 2-no                                               
   RPACOR =    2.000    partial core radius                                                         
   POMASS =   47.880; ZVAL   =   12.000    mass and valenz                                          
   RCORE  =    2.300    outmost cutoff radius                                                       
   RWIGS  =    2.300; RWIGS  =    1.217    wigner-seitz radius (au A)                               
   ENMAX  =  274.610; ENMIN  =  205.957 eV                                                          
   ICORE  =        3    local potential                                                             
   LCOR   =        T    correct aug charges                                                         
   LPAW   =        T    paw PP                                                                      
   EAUG   =  482.848                                                                                
   RMAX   =    2.348    core radius for proj-oper                                                   
   RAUG   =    1.300    factor for augmentation sphere                                              
   RDEP   =    2.381    radius for radial grids                                                     
   RDEPT  =    1.930    core radius for aug-charge                                                  
                                                                                                    
   Atomic configuration                                                                             
    8 entries                                                                                       
     n  l   j            E        occ.                                                              
     1  0  0.50     -4865.3608   2.0000                                                             
     2  0  0.50      -533.1368   2.0000                                                             
     2  1  1.50      -440.5031   6.0000                                                             
     3  0  0.50       -59.3186   2.0000                                                             
     4  0  0.50        -3.7291   1.0000                                                             
     3  1  1.50       -35.7012   6.0000                                                             
     3  2  2.50        -1.9157   3.0000                                                             
     4  3  2.50        -1.3606   0.0000                                                             
   Description                                                                                      
     l       E           TYP  RCUT    TYP  RCUT                                                     
     0    -59.3185931     23  1.800                                                                 
     0     -3.7290822     23  2.300                                                                 
     1    -35.7012045     23  2.300                                                                 
     1     -1.3605826     23  2.300                                                                 
     2     -1.9156920     23  2.300                                                                 
     2     -0.0236318     23  2.300                                                                 
     3     -1.3605826     23  2.300                                                                 
  local pseudopotential read in
  partial core-charges read in
  partial kinetic energy density read in
  atomic valenz-charges read in
  non local Contribution for L=           0  read in
    real space projection operators read in
  non local Contribution for L=           0  read in
    real space projection operators read in
  non local Contribution for L=           1  read in
    real space projection operators read in
  non local Contribution for L=           1  read in
    real space projection operators read in
  non local Contribution for L=           2  read in
    real space projection operators read in
  non local Contribution for L=           2  read in
    real space projection operators read in
    PAW grid and wavefunctions read in
 
   number of l-projection  operators is LMAX  =           6
   number of lm-projection operators is LMMAX =          18
 
 Optimization of the real space projectors (new method)

 maximal supplied QI-value         = 24.76
 optimisation between [QCUT,QGAM] = [ 11.39, 22.77] = [ 36.31,145.25] Ry 
 Optimized for a Real-space Cutoff    1.00 Angstroem

   l    n(q)    QCUT    max X(q) W(low)/X(q) W(high)/X(q)  e(spline) 
   0      7    11.387    20.381    0.39E-03    0.13E-02    0.15E-06
   0      7    11.387    15.268    0.42E-03    0.14E-02    0.17E-06
   1      6    11.387     5.964    0.41E-03    0.11E-02    0.17E-06
   1      6    11.387     5.382    0.39E-03    0.87E-03    0.15E-06
 Optimization of the real space projectors (new method)

 maximal supplied QI-value         = 16.25
 optimisation between [QCUT,QGAM] = [ 11.38, 22.75] = [ 36.24,144.96] Ry 
 Optimized for a Real-space Cutoff    1.27 Angstroem

   l    n(q)    QCUT    max X(q) W(low)/X(q) W(high)/X(q)  e(spline) 
   0      9    11.376    12.277    0.53E-04    0.25E-04    0.25E-07
   0      9    11.376    11.419    0.89E-04    0.67E-05    0.35E-07
   1      8    11.376     4.010    0.13E-03    0.11E-03    0.29E-07
   1      8    11.376     6.182    0.94E-04    0.19E-03    0.11E-06
   2      8    11.376    47.177    0.13E-03    0.88E-03    0.24E-06
   2      8    11.376    42.437    0.13E-03    0.86E-03    0.23E-06
  PAW_PBE O 08Apr2002                   :
 energy of atom  1       EATOM= -432.3788
 kinetic energy error for atom=    0.0224 (will be added to EATOM!!)
  PAW_PBE Ti_sv 26Sep2005               :
 energy of atom  2       EATOM=-1588.0892
 kinetic energy error for atom=    0.0046 (will be added to EATOM!!)
 
 
 POSCAR:  O Ti
  positions in direct lattice
  No initial velocities read in
 exchange correlation table for  LEXCH =        8
   RHO(1)=    0.500       N(1)  =     2000
   RHO(2)=  100.500       N(2)  =     4000
 


--------------------------------------------------------------------------------------------------------


 ion  position               nearest neighbor table
   1  0.805  0.500  0.000- 161 1.95 169 1.95 128 1.98
   2  0.652  0.375  0.402- 132 1.95 156 1.95 131 1.98
   3  0.652  0.375  0.098- 128 1.95 152 1.95 131 1.98
   4  0.750  0.500  0.250- 131 1.95 139 1.95 162 1.98
   5  0.555  0.500  0.250- 131 1.95 139 1.95 130 1.98
   6  0.402  0.375  0.152- 130 1.95 154 1.95 129 1.98
   7  0.402  0.375  0.348- 130 1.95 154 1.95 133 1.98
   8  0.500  0.500  0.000- 129 1.95 137 1.95 128 1.98
   9  0.805  0.500  0.500- 165 1.95 173 1.95 132 1.98
  10  0.652  0.375  0.902- 128 1.95 152 1.95 135 1.98
  11  0.652  0.375  0.598- 132 1.95 156 1.95 135 1.98
  12  0.750  0.500  0.750- 135 1.95 143 1.95 166 1.98
  13  0.555  0.500  0.750- 135 1.95 143 1.95 134 1.98
  14  0.402  0.375  0.652- 134 1.95 158 1.95 133 1.98
  15  0.402  0.375  0.848- 134 1.95 158 1.95 129 1.98
  16  0.500  0.750  0.500- 141 1.95 149 1.95 140 1.98
  17  0.805  0.750  0.000- 169 1.95 177 1.95 136 1.98
  18  0.652  0.625  0.402- 132 1.95 140 1.95 139 1.98
  19  0.652  0.625  0.098- 128 1.95 136 1.95 139 1.98
  20  0.750  0.750  0.250- 139 1.95 147 1.95 170 1.98
  21  0.555  0.750  0.250- 139 1.95 147 1.95 138 1.98
  22  0.402  0.625  0.152- 130 1.95 138 1.95 137 1.98
  23  0.402  0.625  0.348- 130 1.95 138 1.95 141 1.98
  24  0.500  0.750  0.000- 137 1.95 145 1.95 136 1.98
  25  0.805  0.750  0.500- 173 1.95 181 1.95 140 1.98
  26  0.652  0.625  0.902- 128 1.95 136 1.95 143 1.98
  27  0.652  0.625  0.598- 132 1.95 140 1.95 143 1.98
  28  0.750  0.750  0.750- 143 1.95 151 1.95 174 1.98
  29  0.555  0.750  0.750- 143 1.95 151 1.95 142 1.98
  30  0.402  0.625  0.652- 134 1.95 142 1.95 141 1.98
  31  0.402  0.625  0.848- 134 1.95 142 1.95 137 1.98
  32  0.500  0.000  0.500- 149 1.95 157 1.95 148 1.98
  33  0.805  0.000  0.000- 177 1.95 185 1.95 144 1.98
  34  0.652  0.875  0.402- 140 1.95 148 1.95 147 1.98
  35  0.652  0.875  0.098- 136 1.95 144 1.95 147 1.98
  36  0.750  0.000  0.250- 147 1.95 155 1.95 178 1.98
  37  0.555  0.000  0.250- 147 1.95 155 1.95 146 1.98
  38  0.402  0.875  0.152- 138 1.95 146 1.95 145 1.98
  39  0.402  0.875  0.348- 138 1.95 146 1.95 149 1.98
  40  0.500  0.000  0.000- 145 1.95 153 1.95 144 1.98
  41  0.805  0.000  0.500- 181 1.95 189 1.95 148 1.98
  42  0.652  0.875  0.902- 136 1.95 144 1.95 151 1.98
  43  0.652  0.875  0.598- 140 1.95 148 1.95 151 1.98
  44  0.750  0.000  0.750- 151 1.95 159 1.95 182 1.98
  45  0.555  0.000  0.750- 151 1.95 159 1.95 150 1.98
  46  0.402  0.875  0.652- 142 1.95 150 1.95 149 1.98
  47  0.402  0.875  0.848- 142 1.95 150 1.95 145 1.98
  48  0.500  0.250  0.500- 133 1.95 157 1.95 156 1.98
  49  0.805  0.250  0.000- 161 1.95 185 1.95 152 1.98
  50  0.652  0.125  0.402- 148 1.95 156 1.95 155 1.98
  51  0.652  0.125  0.098- 144 1.95 152 1.95 155 1.98
  52  0.750  0.250  0.250- 131 1.95 155 1.95 186 1.98
  53  0.555  0.250  0.250- 131 1.95 155 1.95 154 1.98
  54  0.402  0.125  0.152- 146 1.95 154 1.95 153 1.98
  55  0.402  0.125  0.348- 146 1.95 154 1.95 157 1.98
  56  0.500  0.250  0.000- 129 1.95 153 1.95 152 1.98
  57  0.805  0.250  0.500- 165 1.95 189 1.95 156 1.98
  58  0.652  0.125  0.902- 144 1.95 152 1.95 159 1.98
  59  0.652  0.125  0.598- 148 1.95 156 1.95 159 1.98
  60  0.750  0.250  0.750- 135 1.95 159 1.95 190 1.98
  61  0.555  0.250  0.750- 135 1.95 159 1.95 158 1.98
  62  0.402  0.125  0.652- 150 1.95 158 1.95 157 1.98
  63  0.402  0.125  0.848- 150 1.95 158 1.95 153 1.98
  64  0.000  0.500  0.500- 165 1.95 173 1.95 164 1.98
  65  0.305  0.500  0.000- 129 1.95 137 1.95 160 1.98
  66  0.152  0.375  0.402- 164 1.95 188 1.95 163 1.98
  67  0.152  0.375  0.098- 160 1.95 184 1.95 163 1.98
  68  0.250  0.500  0.250- 163 1.95 171 1.95 130 1.98
  69  0.055  0.500  0.250- 163 1.95 171 1.95 162 1.98
  70  0.902  0.375  0.152- 162 1.95 186 1.95 161 1.98
  71  0.902  0.375  0.348- 162 1.95 186 1.95 165 1.98
  72  0.000  0.500  0.000- 161 1.95 169 1.95 160 1.98
  73  0.305  0.500  0.500- 133 1.95 141 1.95 164 1.98
  74  0.152  0.375  0.902- 160 1.95 184 1.95 167 1.98
  75  0.152  0.375  0.598- 164 1.95 188 1.95 167 1.98
  76  0.250  0.500  0.750- 167 1.95 175 1.95 134 1.98
  77  0.055  0.500  0.750- 167 1.95 175 1.95 166 1.98
  78  0.902  0.375  0.652- 166 1.95 190 1.95 165 1.98
  79  0.902  0.375  0.848- 166 1.95 190 1.95 161 1.98
  80  0.000  0.750  0.500- 173 1.95 181 1.95 172 1.98
  81  0.305  0.750  0.000- 137 1.95 145 1.95 168 1.98
  82  0.152  0.625  0.402- 164 1.95 172 1.95 171 1.98
  83  0.152  0.625  0.098- 160 1.95 168 1.95 171 1.98
  84  0.250  0.750  0.250- 171 1.95 179 1.95 138 1.98
  85  0.055  0.750  0.250- 171 1.95 179 1.95 170 1.98
  86  0.902  0.625  0.152- 162 1.95 170 1.95 169 1.98
  87  0.902  0.625  0.348- 162 1.95 170 1.95 173 1.98
  88  0.000  0.750  0.000- 169 1.95 177 1.95 168 1.98
  89  0.305  0.750  0.500- 141 1.95 149 1.95 172 1.98
  90  0.152  0.625  0.902- 160 1.95 168 1.95 175 1.98
  91  0.152  0.625  0.598- 164 1.95 172 1.95 175 1.98
  92  0.250  0.750  0.750- 175 1.95 183 1.95 142 1.98
  93  0.055  0.750  0.750- 175 1.95 183 1.95 174 1.98
  94  0.902  0.625  0.652- 166 1.95 174 1.95 173 1.98
  95  0.902  0.625  0.848- 166 1.95 174 1.95 169 1.98
  96  0.000  0.000  0.500- 181 1.95 189 1.95 180 1.98
  97  0.305  0.000  0.000- 145 1.95 153 1.95 176 1.98
  98  0.152  0.875  0.402- 172 1.95 180 1.95 179 1.98
  99  0.152  0.875  0.098- 168 1.95 176 1.95 179 1.98
 100  0.250  0.000  0.250- 179 1.95 187 1.95 146 1.98
 101  0.055  0.000  0.250- 179 1.95 187 1.95 178 1.98
 102  0.902  0.875  0.152- 170 1.95 178 1.95 177 1.98
 103  0.902  0.875  0.348- 170 1.95 178 1.95 181 1.98
 104  0.000  0.000  0.000- 177 1.95 185 1.95 176 1.98
 105  0.305  0.000  0.500- 149 1.95 157 1.95 180 1.98
 106  0.152  0.875  0.902- 168 1.95 176 1.95 183 1.98
 107  0.152  0.875  0.598- 172 1.95 180 1.95 183 1.98
 108  0.250  0.000  0.750- 183 1.95 191 1.95 150 1.98
 109  0.055  0.000  0.750- 183 1.95 191 1.95 182 1.98
 110  0.902  0.875  0.652- 174 1.95 182 1.95 181 1.98
 111  0.902  0.875  0.848- 174 1.95 182 1.95 177 1.98
 112  0.000  0.250  0.500- 165 1.95 189 1.95 188 1.98
 113  0.305  0.250  0.000- 129 1.95 153 1.95 184 1.98
 114  0.152  0.125  0.402- 180 1.95 188 1.95 187 1.98
 115  0.152  0.125  0.098- 176 1.95 184 1.95 187 1.98
 116  0.250  0.250  0.250- 163 1.95 187 1.95 154 1.98
 117  0.055  0.250  0.250- 163 1.95 187 1.95 186 1.98
 118  0.902  0.125  0.152- 178 1.95 186 1.95 185 1.98
 119  0.902  0.125  0.348- 178 1.95 186 1.95 189 1.98
 120  0.000  0.250  0.000- 161 1.95 185 1.95 184 1.98
 121  0.305  0.250  0.500- 133 1.95 157 1.95 188 1.98
 122  0.152  0.125  0.902- 176 1.95 184 1.95 191 1.98
 123  0.152  0.125  0.598- 180 1.95 188 1.95 191 1.98
 124  0.250  0.250  0.750- 167 1.95 191 1.95 158 1.98
 125  0.055  0.250  0.750- 167 1.95 191 1.95 190 1.98
 126  0.902  0.125  0.652- 182 1.95 190 1.95 189 1.98
 127  0.902  0.125  0.848- 182 1.95 190 1.95 185 1.98
 128  0.652  0.500  0.000-   3 1.95  10 1.95  19 1.95  26 1.95   8 1.98   1 1.98
 129  0.402  0.375  0.000-   8 1.95  56 1.95  65 1.95 113 1.95  15 1.98   6 1.98
 130  0.402  0.500  0.250-   6 1.95   7 1.95  22 1.95  23 1.95   5 1.98  68 1.98
 131  0.652  0.375  0.250-   4 1.95   5 1.95  52 1.95  53 1.95   2 1.98   3 1.98
 132  0.652  0.500  0.500-   2 1.95  11 1.95  18 1.95  27 1.95   9 1.98
 133  0.402  0.375  0.500-  48 1.95  73 1.95 121 1.95  14 1.98   7 1.98
 134  0.402  0.500  0.750-  14 1.95  15 1.95  30 1.95  31 1.95  13 1.98  76 1.98
 135  0.652  0.375  0.750-  12 1.95  13 1.95  60 1.95  61 1.95  10 1.98  11 1.98
 136  0.652  0.750  0.000-  19 1.95  26 1.95  35 1.95  42 1.95  24 1.98  17 1.98
 137  0.402  0.625  0.000-   8 1.95  24 1.95  65 1.95  81 1.95  22 1.98  31 1.98
 138  0.402  0.750  0.250-  22 1.95  23 1.95  38 1.95  39 1.95  21 1.98  84 1.98
 139  0.652  0.625  0.250-   4 1.95   5 1.95  20 1.95  21 1.95  18 1.98  19 1.98
 140  0.652  0.750  0.500-  18 1.95  27 1.95  34 1.95  43 1.95  25 1.98  16 1.98
 141  0.402  0.625  0.500-  16 1.95  73 1.95  89 1.95  23 1.98  30 1.98
 142  0.402  0.750  0.750-  30 1.95  31 1.95  46 1.95  47 1.95  29 1.98  92 1.98
 143  0.652  0.625  0.750-  12 1.95  13 1.95  28 1.95  29 1.95  26 1.98  27 1.98
 144  0.652  0.000  0.000-  35 1.95  42 1.95  51 1.95  58 1.95  40 1.98  33 1.98
 145  0.402  0.875  0.000-  24 1.95  40 1.95  81 1.95  97 1.95  38 1.98  47 1.98
 146  0.402  0.000  0.250-  38 1.95  39 1.95  54 1.95  55 1.95  37 1.98 100 1.98
 147  0.652  0.875  0.250-  20 1.95  21 1.95  36 1.95  37 1.95  34 1.98  35 1.98
 148  0.652  0.000  0.500-  34 1.95  43 1.95  50 1.95  59 1.95  41 1.98  32 1.98
 149  0.402  0.875  0.500-  16 1.95  32 1.95  89 1.95 105 1.95  39 1.98  46 1.98
 150  0.402  0.000  0.750-  46 1.95  47 1.95  62 1.95  63 1.95  45 1.98 108 1.98
 151  0.652  0.875  0.750-  28 1.95  29 1.95  44 1.95  45 1.95  42 1.98  43 1.98
 152  0.652  0.250  0.000-   3 1.95  10 1.95  51 1.95  58 1.95  56 1.98  49 1.98
 153  0.402  0.125  0.000-  40 1.95  56 1.95  97 1.95 113 1.95  54 1.98  63 1.98
 154  0.402  0.250  0.250-   6 1.95   7 1.95  54 1.95  55 1.95  53 1.98 116 1.98
 155  0.652  0.125  0.250-  36 1.95  37 1.95  52 1.95  53 1.95  50 1.98  51 1.98
 156  0.652  0.250  0.500-   2 1.95  11 1.95  50 1.95  59 1.95  57 1.98  48 1.98
 157  0.402  0.125  0.500-  32 1.95  48 1.95 105 1.95 121 1.95  55 1.98  62 1.98
 158  0.402  0.250  0.750-  14 1.95  15 1.95  62 1.95  63 1.95  61 1.98 124 1.98
 159  0.652  0.125  0.750-  44 1.95  45 1.95  60 1.95  61 1.95  58 1.98  59 1.98
 160  0.152  0.500  0.000-  67 1.95  74 1.95  83 1.95  90 1.95  72 1.98  65 1.98
 161  0.902  0.375  0.000-   1 1.95  49 1.95  72 1.95 120 1.95  79 1.98  70 1.98
 162  0.902  0.500  0.250-  70 1.95  71 1.95  86 1.95  87 1.95   4 1.98  69 1.98
 163  0.152  0.375  0.250-  68 1.95  69 1.95 116 1.95 117 1.95  66 1.98  67 1.98
 164  0.152  0.500  0.500-  66 1.95  75 1.95  82 1.95  91 1.95  73 1.98  64 1.98
 165  0.902  0.375  0.500-   9 1.95  57 1.95  64 1.95 112 1.95  78 1.98  71 1.98
 166  0.902  0.500  0.750-  78 1.95  79 1.95  94 1.95  95 1.95  12 1.98  77 1.98
 167  0.152  0.375  0.750-  76 1.95  77 1.95 124 1.95 125 1.95  74 1.98  75 1.98
 168  0.152  0.750  0.000-  83 1.95  90 1.95  99 1.95 106 1.95  88 1.98  81 1.98
 169  0.902  0.625  0.000-   1 1.95  17 1.95  72 1.95  88 1.95  86 1.98  95 1.98
 170  0.902  0.750  0.250-  86 1.95  87 1.95 102 1.95 103 1.95  20 1.98  85 1.98
 171  0.152  0.625  0.250-  68 1.95  69 1.95  84 1.95  85 1.95  82 1.98  83 1.98
 172  0.152  0.750  0.500-  82 1.95  91 1.95  98 1.95 107 1.95  89 1.98  80 1.98
 173  0.902  0.625  0.500-   9 1.95  25 1.95  64 1.95  80 1.95  87 1.98  94 1.98
 174  0.902  0.750  0.750-  94 1.95  95 1.95 110 1.95 111 1.95  28 1.98  93 1.98
 175  0.152  0.625  0.750-  76 1.95  77 1.95  92 1.95  93 1.95  90 1.98  91 1.98
 176  0.152  0.000  0.000-  99 1.95 106 1.95 115 1.95 122 1.95 104 1.98  97 1.98
 177  0.902  0.875  0.000-  17 1.95  33 1.95  88 1.95 104 1.95 102 1.98 111 1.98
 178  0.902  0.000  0.250- 102 1.95 103 1.95 118 1.95 119 1.95  36 1.98 101 1.98
 179  0.152  0.875  0.250-  84 1.95  85 1.95 100 1.95 101 1.95  98 1.98  99 1.98
 180  0.152  0.000  0.500-  98 1.95 107 1.95 114 1.95 123 1.95 105 1.98  96 1.98
 181  0.902  0.875  0.500-  25 1.95  41 1.95  80 1.95  96 1.95 103 1.98 110 1.98
 182  0.902  0.000  0.750- 110 1.95 111 1.95 126 1.95 127 1.95  44 1.98 109 1.98
 183  0.152  0.875  0.750-  92 1.95  93 1.95 108 1.95 109 1.95 106 1.98 107 1.98
 184  0.152  0.250  0.000-  67 1.95  74 1.95 115 1.95 122 1.95 120 1.98 113 1.98
 185  0.902  0.125  0.000-  33 1.95  49 1.95 104 1.95 120 1.95 118 1.98 127 1.98
 186  0.902  0.250  0.250-  70 1.95  71 1.95 118 1.95 119 1.95  52 1.98 117 1.98
 187  0.152  0.125  0.250- 100 1.95 101 1.95 116 1.95 117 1.95 114 1.98 115 1.98
 188  0.152  0.250  0.500-  66 1.95  75 1.95 114 1.95 123 1.95 121 1.98 112 1.98
 189  0.902  0.125  0.500-  41 1.95  57 1.95  96 1.95 112 1.95 119 1.98 126 1.98
 190  0.902  0.250  0.750-  78 1.95  79 1.95 126 1.95 127 1.95  60 1.98 125 1.98
 191  0.152  0.125  0.750- 108 1.95 109 1.95 124 1.95 125 1.95 122 1.98 123 1.98
 

IMPORTANT INFORMATION: All symmetrisations will be switched off!
NOSYMM: (Re-)initialisation of all symmetry stuff for point group C_1.


----------------------------------------------------------------------------------------

                                     Primitive cell                                     

  volume of cell :    2006.6520

  direct lattice vectors                    reciprocal lattice vectors
    13.016074892  0.000000000  0.000000000     0.076828077  0.000000000  0.000000000
     0.000000000 11.844370774  0.000000000     0.000000000  0.084428292  0.000000000
     0.000000000  0.000000000 13.016074892     0.000000000  0.000000000  0.076828077

  length of vectors
    13.016074892 11.844370774 13.016074892     0.076828077  0.084428292  0.076828077

  position of ions in fractional coordinates (direct lattice)
     0.804535380  0.500000000  0.000000000
     0.652267690  0.375000000  0.402267690
     0.652267690  0.375000000  0.097732310
     0.750000000  0.500000000  0.250000000
     0.554535380  0.500000000  0.250000000
     0.402267690  0.375000000  0.152267690
     0.402267690  0.375000000  0.347732310
     0.500000000  0.500000000  0.000000000
     0.804535380  0.500000000  0.500000000
     0.652267690  0.375000000  0.902267690
     0.652267690  0.375000000  0.597732310
     0.750000000  0.500000000  0.750000000
     0.554535380  0.500000000  0.750000000
     0.402267690  0.375000000  0.652267690
     0.402267690  0.375000000  0.847732310
     0.500000000  0.750000000  0.500000000
     0.804535380  0.750000000  0.000000000
     0.652267690  0.625000000  0.402267690
     0.652267690  0.625000000  0.097732310
     0.750000000  0.750000000  0.250000000
     0.554535380  0.750000000  0.250000000
     0.402267690  0.625000000  0.152267690
     0.402267690  0.625000000  0.347732310
     0.500000000  0.750000000  0.000000000
     0.804535380  0.750000000  0.500000000
     0.652267690  0.625000000  0.902267690
     0.652267690  0.625000000  0.597732310
     0.750000000  0.750000000  0.750000000
     0.554535380  0.750000000  0.750000000
     0.402267690  0.625000000  0.652267690
     0.402267690  0.625000000  0.847732310
     0.500000000  0.000000000  0.500000000
     0.804535380  0.000000000  0.000000000
     0.652267690  0.875000000  0.402267690
     0.652267690  0.875000000  0.097732310
     0.750000000  0.000000000  0.250000000
     0.554535380  0.000000000  0.250000000
     0.402267690  0.875000000  0.152267690
     0.402267690  0.875000000  0.347732310
     0.500000000  0.000000000  0.000000000
     0.804535380  0.000000000  0.500000000
     0.652267690  0.875000000  0.902267690
     0.652267690  0.875000000  0.597732310
     0.750000000  0.000000000  0.750000000
     0.554535380  0.000000000  0.750000000
     0.402267690  0.875000000  0.652267690
     0.402267690  0.875000000  0.847732310
     0.500000000  0.250000000  0.500000000
     0.804535380  0.250000000  0.000000000
     0.652267690  0.125000000  0.402267690
     0.652267690  0.125000000  0.097732310
     0.750000000  0.250000000  0.250000000
     0.554535380  0.250000000  0.250000000
     0.402267690  0.125000000  0.152267690
     0.402267690  0.125000000  0.347732310
     0.500000000  0.250000000  0.000000000
     0.804535380  0.250000000  0.500000000
     0.652267690  0.125000000  0.902267690
     0.652267690  0.125000000  0.597732310
     0.750000000  0.250000000  0.750000000
     0.554535380  0.250000000  0.750000000
     0.402267690  0.125000000  0.652267690
     0.402267690  0.125000000  0.847732310
     0.000000000  0.500000000  0.500000000
     0.304535380  0.500000000  0.000000000
     0.152267690  0.375000000  0.402267690
     0.152267690  0.375000000  0.097732310
     0.250000000  0.500000000  0.250000000
     0.054535380  0.500000000  0.250000000
     0.902267690  0.375000000  0.152267690
     0.902267690  0.375000000  0.347732310
     0.000000000  0.500000000  0.000000000
     0.304535380  0.500000000  0.500000000
     0.152267690  0.375000000  0.902267690
     0.152267690  0.375000000  0.597732310
     0.250000000  0.500000000  0.750000000
     0.054535380  0.500000000  0.750000000
     0.902267690  0.375000000  0.652267690
     0.902267690  0.375000000  0.847732310
     0.000000000  0.750000000  0.500000000
     0.304535380  0.750000000  0.000000000
     0.152267690  0.625000000  0.402267690
     0.152267690  0.625000000  0.097732310
     0.250000000  0.750000000  0.250000000
     0.054535380  0.750000000  0.250000000
     0.902267690  0.625000000  0.152267690
     0.902267690  0.625000000  0.347732310
     0.000000000  0.750000000  0.000000000
     0.304535380  0.750000000  0.500000000
     0.152267690  0.625000000  0.902267690
     0.152267690  0.625000000  0.597732310
     0.250000000  0.750000000  0.750000000
     0.054535380  0.750000000  0.750000000
     0.902267690  0.625000000  0.652267690
     0.902267690  0.625000000  0.847732310
     0.000000000  0.000000000  0.500000000
     0.304535380  0.000000000  0.000000000
     0.152267690  0.875000000  0.402267690
     0.152267690  0.875000000  0.097732310
     0.250000000  0.000000000  0.250000000
     0.054535380  0.000000000  0.250000000
     0.902267690  0.875000000  0.152267690
     0.902267690  0.875000000  0.347732310
     0.000000000  0.000000000  0.000000000
     0.304535380  0.000000000  0.500000000
     0.152267690  0.875000000  0.902267690
     0.152267690  0.875000000  0.597732310
     0.250000000  0.000000000  0.750000000
     0.054535380  0.000000000  0.750000000
     0.902267690  0.875000000  0.652267690
     0.902267690  0.875000000  0.847732310
     0.000000000  0.250000000  0.500000000
     0.304535380  0.250000000  0.000000000
     0.152267690  0.125000000  0.402267690
     0.152267690  0.125000000  0.097732310
     0.250000000  0.250000000  0.250000000
     0.054535380  0.250000000  0.250000000
     0.902267690  0.125000000  0.152267690
     0.902267690  0.125000000  0.347732310
     0.000000000  0.250000000  0.000000000
     0.304535380  0.250000000  0.500000000
     0.152267690  0.125000000  0.902267690
     0.152267690  0.125000000  0.597732310
     0.250000000  0.250000000  0.750000000
     0.054535380  0.250000000  0.750000000
     0.902267690  0.125000000  0.652267690
     0.902267690  0.125000000  0.847732310
     0.652267690  0.500000000  0.000000000
     0.402267690  0.375000000  0.000000000
     0.402267690  0.500000000  0.250000000
     0.652267690  0.375000000  0.250000000
     0.652267690  0.500000000  0.500000000
     0.402267690  0.375000000  0.500000000
     0.402267690  0.500000000  0.750000000
     0.652267690  0.375000000  0.750000000
     0.652267690  0.750000000  0.000000000
     0.402267690  0.625000000  0.000000000
     0.402267690  0.750000000  0.250000000
     0.652267690  0.625000000  0.250000000
     0.652267690  0.750000000  0.500000000
     0.402267690  0.625000000  0.500000000
     0.402267690  0.750000000  0.750000000
     0.652267690  0.625000000  0.750000000
     0.652267690  0.000000000  0.000000000
     0.402267690  0.875000000  0.000000000
     0.402267690  0.000000000  0.250000000
     0.652267690  0.875000000  0.250000000
     0.652267690  0.000000000  0.500000000
     0.402267690  0.875000000  0.500000000
     0.402267690  0.000000000  0.750000000
     0.652267690  0.875000000  0.750000000
     0.652267690  0.250000000  0.000000000
     0.402267690  0.125000000  0.000000000
     0.402267690  0.250000000  0.250000000
     0.652267690  0.125000000  0.250000000
     0.652267690  0.250000000  0.500000000
     0.402267690  0.125000000  0.500000000
     0.402267690  0.250000000  0.750000000
     0.652267690  0.125000000  0.750000000
     0.152267690  0.500000000  0.000000000
     0.902267690  0.375000000  0.000000000
     0.902267690  0.500000000  0.250000000
     0.152267690  0.375000000  0.250000000
     0.152267690  0.500000000  0.500000000
     0.902267690  0.375000000  0.500000000
     0.902267690  0.500000000  0.750000000
     0.152267690  0.375000000  0.750000000
     0.152267690  0.750000000  0.000000000
     0.902267690  0.625000000  0.000000000
     0.902267690  0.750000000  0.250000000
     0.152267690  0.625000000  0.250000000
     0.152267690  0.750000000  0.500000000
     0.902267690  0.625000000  0.500000000
     0.902267690  0.750000000  0.750000000
     0.152267690  0.625000000  0.750000000
     0.152267690  0.000000000  0.000000000
     0.902267690  0.875000000  0.000000000
     0.902267690  0.000000000  0.250000000
     0.152267690  0.875000000  0.250000000
     0.152267690  0.000000000  0.500000000
     0.902267690  0.875000000  0.500000000
     0.902267690  0.000000000  0.750000000
     0.152267690  0.875000000  0.750000000
     0.152267690  0.250000000  0.000000000
     0.902267690  0.125000000  0.000000000
     0.902267690  0.250000000  0.250000000
     0.152267690  0.125000000  0.250000000
     0.152267690  0.250000000  0.500000000
     0.902267690  0.125000000  0.500000000
     0.902267690  0.250000000  0.750000000
     0.152267690  0.125000000  0.750000000

  ion indices of the primitive-cell ions
   primitive index   ion index
                 1           1
                 2           2
                 3           3
                 4           4
                 5           5
                 6           6
                 7           7
                 8           8
                 9           9
                10          10
                11          11
                12          12
                13          13
                14          14
                15          15
                16          16
                17          17
                18          18
                19          19
                20          20
                21          21
                22          22
                23          23
                24          24
                25          25
                26          26
                27          27
                28          28
                29          29
                30          30
                31          31
                32          32
                33          33
                34          34
                35          35
                36          36
                37          37
                38          38
                39          39
                40          40
                41          41
                42          42
                43          43
                44          44
                45          45
                46          46
                47          47
                48          48
                49          49
                50          50
                51          51
                52          52
                53          53
                54          54
                55          55
                56          56
                57          57
                58          58
                59          59
                60          60
                61          61
                62          62
                63          63
                64          64
                65          65
                66          66
                67          67
                68          68
                69          69
                70          70
                71          71
                72          72
                73          73
                74          74
                75          75
                76          76
                77          77
                78          78
                79          79
                80          80
                81          81
                82          82
                83          83
                84          84
                85          85
                86          86
                87          87
                88          88
                89          89
                90          90
                91          91
                92          92
                93          93
                94          94
                95          95
                96          96
                97          97
                98          98
                99          99
               100         100
               101         101
               102         102
               103         103
               104         104
               105         105
               106         106
               107         107
               108         108
               109         109
               110         110
               111         111
               112         112
               113         113
               114         114
               115         115
               116         116
               117         117
               118         118
               119         119
               120         120
               121         121
               122         122
               123         123
               124         124
               125         125
               126         126
               127         127
               128         128
               129         129
               130         130
               131         131
               132         132
               133         133
               134         134
               135         135
               136         136
               137         137
               138         138
               139         139
               140         140
               141         141
               142         142
               143         143
               144         144
               145         145
               146         146
               147         147
               148         148
               149         149
               150         150
               151         151
               152         152
               153         153
               154         154
               155         155
               156         156
               157         157
               158         158
               159         159
               160         160
               161         161
               162         162
               163         163
               164         164
               165         165
               166         166
               167         167
               168         168
               169         169
               170         170
               171         171
               172         172
               173         173
               174         174
               175         175
               176         176
               177         177
               178         178
               179         179
               180         180
               181         181
               182         182
               183         183
               184         184
               185         185
               186         186
               187         187
               188         188
               189         189
               190         190
               191         191

----------------------------------------------------------------------------------------

 
 
 KPOINTS: pymatgen v2020.8.13 with grid density = 

Automatic generation of k-mesh.
 Grid dimensions read from file:
 generate k-points for:    2    2    2

 Generating k-lattice:

  Cartesian coordinates                     Fractional coordinates (reciprocal lattice)
     0.038414038  0.000000000  0.000000000     0.500000000  0.000000000  0.000000000
     0.000000000  0.042214146  0.000000000     0.000000000  0.500000000  0.000000000
     0.000000000  0.000000000  0.038414038     0.000000000  0.000000000  0.500000000

  Length of vectors
     0.038414038  0.042214146  0.038414038

  Shift w.r.t. Gamma in fractional coordinates (k-lattice)
     0.000000000  0.000000000  0.000000000

 
 Subroutine IBZKPT returns following result:
 ===========================================
 
 Found      8 irreducible k-points:
 
 Following reciprocal coordinates:
            Coordinates               Weight
  0.000000  0.000000  0.000000      1.000000
  0.500000  0.000000  0.000000      1.000000
  0.000000  0.000000  0.500000      1.000000
  0.000000  0.500000  0.000000      1.000000
  0.500000  0.500000  0.000000      1.000000
  0.000000  0.500000  0.500000      1.000000
  0.500000  0.000000  0.500000      1.000000
  0.500000  0.500000  0.500000      1.000000
 
 Following cartesian coordinates:
            Coordinates               Weight
  0.000000  0.000000  0.000000      1.000000
  0.038414  0.000000  0.000000      1.000000
  0.000000  0.000000  0.038414      1.000000
  0.000000  0.042214  0.000000      1.000000
  0.038414  0.042214  0.000000      1.000000
  0.000000  0.042214  0.038414      1.000000
  0.038414  0.000000  0.038414      1.000000
  0.038414  0.042214  0.038414      1.000000
 


--------------------------------------------------------------------------------------------------------




 Dimension of arrays:
   k-points           NKPTS =      8   k-points in BZ     NKDIM =      8   number of bands    NBANDS=    918
   number of dos      NEDOS =    301   number of ions     NIONS =    191
   non local maximal  LDIM  =      6   non local SUM 2l+1 LMDIM =     18
   total plane-waves  NPLWV = 362880
   max r-space proj   IRMAX =   1608   max aug-charges    IRDMAX=   7220
   dimension x,y,z NGX =    72 NGY =   70 NGZ =   72
   dimension x,y,z NGXF=   144 NGYF=  140 NGZF=  144
   support grid    NGXF=   144 NGYF=  140 NGZF=  144
   ions per type =             127  64
   NGX,Y,Z   is equivalent  to a cutoff of   9.20,  9.83,  9.20 a.u.
   NGXF,Y,Z  is equivalent  to a cutoff of  18.39, 19.65, 18.39 a.u.

 SYSTEM =  TiO2-rutile                             
 POSCAR =   O Ti                                   

 Startparameter for this run:
   NWRITE =      2    write-flag & timer
   PREC   = normal    normal or accurate (medium, high low for compatibility)
   ISTART =      0    job   : 0-new  1-cont  2-samecut
   ICHARG =      2    charge: 1-file 2-atom 10-const
   ISPIN  =      1    spin polarized calculation?
   LNONCOLLINEAR =      F non collinear calculations
   LSORBIT =      F    spin-orbit coupling
   INIWAV =      1    electr: 0-lowe 1-rand  2-diag
   LASPH  =      T    aspherical Exc in radial PAW
   METAGGA=      F    non-selfconsistent MetaGGA calc.

 Electronic Relaxation 1
   ENCUT  =  500.0 eV  36.75 Ry    6.06 a.u.  23.73 21.60 23.73*2*pi/ulx,y,z
   ENINI  =  500.0     initial cutoff
   ENAUG  =  605.4 eV  augmentation charge cutoff
   NELM   =    300;   NELMIN=  2; NELMDL= -5     # of ELM steps 
   EDIFF  = 0.1E-04   stopping-criterion for ELM
   LREAL  =      T    real-space projection
   NLSPLINE    = F    spline interpolate recip. space projectors
   LCOMPAT=      F    compatible to vasp.4.4
   GGA_COMPAT  = T    GGA compatible to vasp.4.4-vasp.4.6
   LMAXPAW     = -100 max onsite density
   LMAXMIX     =    2 max onsite mixed and CHGCAR
   VOSKOWN=      0    Vosko Wilk Nusair interpolation
   ROPT   =   -0.00050  -0.00050
 Ionic relaxation
   EDIFFG = -.1E-01   stopping-criterion for IOM
   NSW    =      0    number of steps for IOM
   NBLOCK =      1;   KBLOCK =      1    inner block; outer block 
   IBRION =     -1    ionic relax: 0-MD 1-quasi-New 2-CG
   NFREE  =      0    steps in history (QN), initial steepest desc. (CG)
   ISIF   =      2    stress and relaxation
   IWAVPR =     10    prediction:  0-non 1-charg 2-wave 3-comb
   ISYM   =      0    0-nonsym 1-usesym 2-fastsym
   LCORR  =      T    Harris-Foulkes like correction to forces

   POTIM  = 0.5000    time-step for ionic-motion
   TEIN   =    0.0    initial temperature
   TEBEG  =    0.0;   TEEND  =   0.0 temperature during run
   SMASS  =  -3.00    Nose mass-parameter (am)
   estimated Nose-frequenzy (Omega)   =  0.10E-29 period in steps = 0.13E+47 mass=  -0.387E-26a.u.
   SCALEE = 1.0000    scale energy and forces
   NPACO  =    256;   APACO  = 16.0  distance and # of slots for P.C.
   PSTRESS=    0.0 pullay stress

  Mass of Ions in am
   POMASS =  16.00 47.88
  Ionic Valenz
   ZVAL   =   6.00 12.00
  Atomic Wigner-Seitz radii
   RWIGS  =  -1.00 -1.00
  virtual crystal weights 
   VCA    =   1.00  1.00
   NELECT =    1530.0000    total number of electrons
   NUPDOWN=      -1.0000    fix difference up-down

 DOS related values:
   EMIN   =  10.00;   EMAX   =-10.00  energy-range for DOS
   EFERMI =   0.00
   ISMEAR =     0;   SIGMA  =   0.05  broadening in eV -4-tet -1-fermi 0-gaus

 Electronic relaxation 2 (details)
   IALGO  =     68    algorithm
   LDIAG  =      T    sub-space diagonalisation (order eigenvalues)
   LSUBROT=      F    optimize rotation matrix (better conditioning)
   TURBO    =      0    0=normal 1=particle mesh
   IRESTART =      0    0=no restart 2=restart with 2 vectors
   NREBOOT  =      0    no. of reboots
   NMIN     =      0    reboot dimension
   EREF     =   0.00    reference energy to select bands
   IMIX   =      4    mixing-type and parameters
     AMIX     =   0.40;   BMIX     =  1.00
     AMIX_MAG =   1.60;   BMIX_MAG =  1.00
     AMIN     =   0.10
     WC   =   100.;   INIMIX=   1;  MIXPRE=   1;  MAXMIX= -45

 Intra band minimization:
   WEIMIN = 0.0000     energy-eigenvalue tresh-hold
   EBREAK =  0.27E-08  absolut break condition
   DEPER  =   0.30     relativ break condition  

   TIME   =   0.40     timestep for ELM

  volume/ion in A,a.u.               =      10.51        70.90
  Fermi-wavevector in a.u.,A,eV,Ry     =   1.495597  2.826269 30.433657  2.236811
  Thomas-Fermi vector in A             =   2.607721
 
 Write flags
   LWAVE        =      F    write WAVECAR
   LDOWNSAMPLE  =      F    k-point downsampling of WAVECAR
   LCHARG       =      F    write CHGCAR
   LVTOT        =      F    write LOCPOT, total local potential
   LVHAR        =      F    write LOCPOT, Hartree potential only
   LELF         =      F    write electronic localiz. function (ELF)
   LORBIT       =     11    0 simple, 1 ext, 2 COOP (PROOUT), +10 PAW based schemes


 Dipole corrections
   LMONO  =      F    monopole corrections only (constant potential shift)
   LDIPOL =      F    correct potential (dipole corrections)
   IDIPOL =      0    1-x, 2-y, 3-z, 4-all directions 
   EPSILON=  1.0000000 bulk dielectric constant

 Exchange correlation treatment:
   GGA     =    PE    GGA type
   LEXCH   =     8    internal setting for exchange type
   VOSKOWN=      0    Vosko Wilk Nusair interpolation
   LHFCALC =     F    Hartree Fock is set to
   LHFONE  =     F    Hartree Fock one center treatment
   AEXX    =    0.0000 exact exchange contribution

 Linear response parameters
   LEPSILON=     F    determine dielectric tensor
   LRPA    =     F    only Hartree local field effects (RPA)
   LNABLA  =     F    use nabla operator in PAW spheres
   LVEL    =     F    velocity operator in full k-point grid
   LINTERFAST=   F  fast interpolation
   KINTER  =     0    interpolate to denser k-point grid
   CSHIFT  =0.1000    complex shift for real part using Kramers Kronig
   OMEGAMAX=  -1.0    maximum frequency
   DEG_THRESHOLD= 0.2000000E-02 threshold for treating states as degnerate
   RTIME   =   -0.100 relaxation time in fs
  (WPLASMAI=    0.000 imaginary part of plasma frequency in eV, 0.658/RTIME)
   DFIELD  = 0.0000000 0.0000000 0.0000000 field for delta impulse in time
 
 Orbital magnetization related:
   ORBITALMAG=     F  switch on orbital magnetization
   LCHIMAG   =     F  perturbation theory with respect to B field
   DQ        =  0.001000  dq finite difference perturbation B field
   LLRAUG    =     F  two centre corrections for induced B field



--------------------------------------------------------------------------------------------------------


 Static calculation
 charge density and potential will be updated during run
 non-spin polarized calculation
 RMM-DIIS sequential band-by-band and
  variant of blocked Davidson during initial phase
 perform sub-space diagonalisation
    before iterative eigenvector-optimisation
 modified Broyden-mixing scheme, WC =      100.0
 initial mixing is a Kerker type mixing with AMIX =  0.4000 and BMIX =      1.0000
 Hartree-type preconditioning will be used
 using additional bands          153
 real space projection scheme for non local part
 use partial core corrections
 calculate Harris-corrections to forces 
   (improved forces if not selfconsistent)
 use gradient corrections 
 use of overlap-Matrix (Vanderbilt PP)
 Gauss-broadening in eV      SIGMA  =   0.05


--------------------------------------------------------------------------------------------------------


  energy-cutoff  :      500.00
  volume of cell :     2006.65
      direct lattice vectors                 reciprocal lattice vectors
    13.016074892  0.000000000  0.000000000     0.076828077  0.000000000  0.000000000
     0.000000000 11.844370774  0.000000000     0.000000000  0.084428292  0.000000000
     0.000000000  0.000000000 13.016074892     0.000000000  0.000000000  0.076828077

  length of vectors
    13.016074892 11.844370774 13.016074892     0.076828077  0.084428292  0.076828077


 
 k-points in units of 2pi/SCALE and weight: pymatgen v2020.8.13 with grid density = 
   0.00000000  0.00000000  0.00000000       0.125
   0.03841404  0.00000000  0.00000000       0.125
   0.00000000  0.00000000  0.03841404       0.125
   0.00000000  0.04221415  0.00000000       0.125
   0.03841404  0.04221415  0.00000000       0.125
   0.00000000  0.04221415  0.03841404       0.125
   0.03841404  0.00000000  0.03841404       0.125
   0.03841404  0.04221415  0.03841404       0.125
 
 k-points in reciprocal lattice and weights: pymatgen v2020.8.13 with grid density = 
   0.00000000  0.00000000  0.00000000       0.125
   0.50000000  0.00000000  0.00000000       0.125
   0.00000000  0.00000000  0.50000000       0.125
   0.00000000  0.50000000  0.00000000       0.125
   0.50000000  0.50000000  0.00000000       0.125
   0.00000000  0.50000000  0.50000000       0.125
   0.50000000  0.00000000  0.50000000       0.125
   0.50000000  0.50000000  0.50000000       0.125
 
 position of ions in fractional coordinates (direct lattice) 
   0.80453538  0.50000000  0.00000000
   0.65226769  0.37500000  0.40226769
   0.65226769  0.37500000  0.09773231
   0.75000000  0.50000000  0.25000000
   0.55453538  0.50000000  0.25000000
   0.40226769  0.37500000  0.15226769
   0.40226769  0.37500000  0.34773231
   0.50000000  0.50000000  0.00000000
   0.80453538  0.50000000  0.50000000
   0.65226769  0.37500000  0.90226769
   0.65226769  0.37500000  0.59773231
   0.75000000  0.50000000  0.75000000
   0.55453538  0.50000000  0.75000000
   0.40226769  0.37500000  0.65226769
   0.40226769  0.37500000  0.84773231
   0.50000000  0.75000000  0.50000000
   0.80453538  0.75000000  0.00000000
   0.65226769  0.62500000  0.40226769
   0.65226769  0.62500000  0.09773231
   0.75000000  0.75000000  0.25000000
   0.55453538  0.75000000  0.25000000
   0.40226769  0.62500000  0.15226769
   0.40226769  0.62500000  0.34773231
   0.50000000  0.75000000  0.00000000
   0.80453538  0.75000000  0.50000000
   0.65226769  0.62500000  0.90226769
   0.65226769  0.62500000  0.59773231
   0.75000000  0.75000000  0.75000000
   0.55453538  0.75000000  0.75000000
   0.40226769  0.62500000  0.65226769
   0.40226769  0.62500000  0.84773231
   0.50000000  0.00000000  0.50000000
   0.80453538  0.00000000  0.00000000
   0.65226769  0.87500000  0.40226769
   0.65226769  0.87500000  0.09773231
   0.75000000  0.00000000  0.25000000
   0.55453538  0.00000000  0.25000000
   0.40226769  0.87500000  0.15226769
   0.40226769  0.87500000  0.34773231
   0.50000000  0.00000000  0.00000000
   0.80453538  0.00000000  0.50000000
   0.65226769  0.87500000  0.90226769
   0.65226769  0.87500000  0.59773231
   0.75000000  0.00000000  0.75000000
   0.55453538  0.00000000  0.75000000
   0.40226769  0.87500000  0.65226769
   0.40226769  0.87500000  0.84773231
   0.50000000  0.25000000  0.50000000
   0.80453538  0.25000000  0.00000000
   0.65226769  0.12500000  0.40226769
   0.65226769  0.12500000  0.09773231
   0.75000000  0.25000000  0.25000000
   0.55453538  0.25000000  0.25000000
   0.40226769  0.12500000  0.15226769
   0.40226769  0.12500000  0.34773231
   0.50000000  0.25000000  0.00000000
   0.80453538  0.25000000  0.50000000
   0.65226769  0.12500000  0.90226769
   0.65226769  0.12500000  0.59773231
   0.75000000  0.25000000  0.75000000
   0.55453538  0.25000000  0.75000000
   0.40226769  0.12500000  0.65226769
   0.40226769  0.12500000  0.84773231
   0.00000000  0.50000000  0.50000000
   0.30453538  0.50000000  0.00000000
   0.15226769  0.37500000  0.40226769
   0.15226769  0.37500000  0.09773231
   0.25000000  0.50000000  0.25000000
   0.05453538  0.50000000  0.25000000
   0.90226769  0.37500000  0.15226769
   0.90226769  0.37500000  0.34773231
   0.00000000  0.50000000  0.00000000
   0.30453538  0.50000000  0.50000000
   0.15226769  0.37500000  0.90226769
   0.15226769  0.37500000  0.59773231
   0.25000000  0.50000000  0.75000000
   0.05453538  0.50000000  0.75000000
   0.90226769  0.37500000  0.65226769
   0.90226769  0.37500000  0.84773231
   0.00000000  0.75000000  0.50000000
   0.30453538  0.75000000  0.00000000
   0.15226769  0.62500000  0.40226769
   0.15226769  0.62500000  0.09773231
   0.25000000  0.75000000  0.25000000
   0.05453538  0.75000000  0.25000000
   0.90226769  0.62500000  0.15226769
   0.90226769  0.62500000  0.34773231
   0.00000000  0.75000000  0.00000000
   0.30453538  0.75000000  0.50000000
   0.15226769  0.62500000  0.90226769
   0.15226769  0.62500000  0.59773231
   0.25000000  0.75000000  0.75000000
   0.05453538  0.75000000  0.75000000
   0.90226769  0.62500000  0.65226769
   0.90226769  0.62500000  0.84773231
   0.00000000  0.00000000  0.50000000
   0.30453538  0.00000000  0.00000000
   0.15226769  0.87500000  0.40226769
   0.15226769  0.87500000  0.09773231
   0.25000000  0.00000000  0.25000000
   0.05453538  0.00000000  0.25000000
   0.90226769  0.87500000  0.15226769
   0.90226769  0.87500000  0.34773231
   0.00000000  0.00000000  0.00000000
   0.30453538  0.00000000  0.50000000
   0.15226769  0.87500000  0.90226769
   0.15226769  0.87500000  0.59773231
   0.25000000  0.00000000  0.75000000
   0.05453538  0.00000000  0.75000000
   0.90226769  0.87500000  0.65226769
   0.90226769  0.87500000  0.84773231
   0.00000000  0.25000000  0.50000000
   0.30453538  0.25000000  0.00000000
   0.15226769  0.12500000  0.40226769
   0.15226769  0.12500000  0.09773231
   0.25000000  0.25000000  0.25000000
   0.05453538  0.25000000  0.25000000
   0.90226769  0.12500000  0.15226769
   0.90226769  0.12500000  0.34773231
   0.00000000  0.25000000  0.00000000
   0.30453538  0.25000000  0.50000000
   0.15226769  0.12500000  0.90226769
   0.15226769  0.12500000  0.59773231
   0.25000000  0.25000000  0.75000000
   0.05453538  0.25000000  0.75000000
   0.90226769  0.12500000  0.65226769
   0.90226769  0.12500000  0.84773231
   0.65226769  0.50000000  0.00000000
   0.40226769  0.37500000  0.00000000
   0.40226769  0.50000000  0.25000000
   0.65226769  0.37500000  0.25000000
   0.65226769  0.50000000  0.50000000
   0.40226769  0.37500000  0.50000000
   0.40226769  0.50000000  0.75000000
   0.65226769  0.37500000  0.75000000
   0.65226769  0.75000000  0.00000000
   0.40226769  0.62500000  0.00000000
   0.40226769  0.75000000  0.25000000
   0.65226769  0.62500000  0.25000000
   0.65226769  0.75000000  0.50000000
   0.40226769  0.62500000  0.50000000
   0.40226769  0.75000000  0.75000000
   0.65226769  0.62500000  0.75000000
   0.65226769  0.00000000  0.00000000
   0.40226769  0.87500000  0.00000000
   0.40226769  0.00000000  0.25000000
   0.65226769  0.87500000  0.25000000
   0.65226769  0.00000000  0.50000000
   0.40226769  0.87500000  0.50000000
   0.40226769  0.00000000  0.75000000
   0.65226769  0.87500000  0.75000000
   0.65226769  0.25000000  0.00000000
   0.40226769  0.12500000  0.00000000
   0.40226769  0.25000000  0.25000000
   0.65226769  0.12500000  0.25000000
   0.65226769  0.25000000  0.50000000
   0.40226769  0.12500000  0.50000000
   0.40226769  0.25000000  0.75000000
   0.65226769  0.12500000  0.75000000
   0.15226769  0.50000000  0.00000000
   0.90226769  0.37500000  0.00000000
   0.90226769  0.50000000  0.25000000
   0.15226769  0.37500000  0.25000000
   0.15226769  0.50000000  0.50000000
   0.90226769  0.37500000  0.50000000
   0.90226769  0.50000000  0.75000000
   0.15226769  0.37500000  0.75000000
   0.15226769  0.75000000  0.00000000
   0.90226769  0.62500000  0.00000000
   0.90226769  0.75000000  0.25000000
   0.15226769  0.62500000  0.25000000
   0.15226769  0.75000000  0.50000000
   0.90226769  0.62500000  0.50000000
   0.90226769  0.75000000  0.75000000
   0.15226769  0.62500000  0.75000000
   0.15226769  0.00000000  0.00000000
   0.90226769  0.87500000  0.00000000
   0.90226769  0.00000000  0.25000000
   0.15226769  0.87500000  0.25000000
   0.15226769  0.00000000  0.50000000
   0.90226769  0.87500000  0.50000000
   0.90226769  0.00000000  0.75000000
   0.15226769  0.87500000  0.75000000
   0.15226769  0.25000000  0.00000000
   0.90226769  0.12500000  0.00000000
   0.90226769  0.25000000  0.25000000
   0.15226769  0.12500000  0.25000000
   0.15226769  0.25000000  0.50000000
   0.90226769  0.12500000  0.50000000
   0.90226769  0.25000000  0.75000000
   0.15226769  0.12500000  0.75000000
 
 position of ions in cartesian coordinates  (Angst):
  10.47189276  5.92218539  0.00000000
   8.48996510  4.44163904  5.23594638
   8.48996510  4.44163904  1.27209107
   9.76205617  5.92218539  3.25401872
   7.21787403  5.92218539  3.25401872
   5.23594638  4.44163904  1.98192765
   5.23594638  4.44163904  4.52610979
   6.50803745  5.92218539  0.00000000
  10.47189276  5.92218539  6.50803745
   8.48996510  4.44163904 11.74398382
   8.48996510  4.44163904  7.78012851
   9.76205617  5.92218539  9.76205617
   7.21787403  5.92218539  9.76205617
   5.23594638  4.44163904  8.48996510
   5.23594638  4.44163904 11.03414724
   6.50803745  8.88327808  6.50803745
  10.47189276  8.88327808  0.00000000
   8.48996510  7.40273173  5.23594638
   8.48996510  7.40273173  1.27209107
   9.76205617  8.88327808  3.25401872
   7.21787403  8.88327808  3.25401872
   5.23594638  7.40273173  1.98192765
   5.23594638  7.40273173  4.52610979
   6.50803745  8.88327808  0.00000000
  10.47189276  8.88327808  6.50803745
   8.48996510  7.40273173 11.74398382
   8.48996510  7.40273173  7.78012851
   9.76205617  8.88327808  9.76205617
   7.21787403  8.88327808  9.76205617
   5.23594638  7.40273173  8.48996510
   5.23594638  7.40273173 11.03414724
   6.50803745  0.00000000  6.50803745
  10.47189276  0.00000000  0.00000000
   8.48996510 10.36382443  5.23594638
   8.48996510 10.36382443  1.27209107
   9.76205617  0.00000000  3.25401872
   7.21787403  0.00000000  3.25401872
   5.23594638 10.36382443  1.98192765
   5.23594638 10.36382443  4.52610979
   6.50803745  0.00000000  0.00000000
  10.47189276  0.00000000  6.50803745
   8.48996510 10.36382443 11.74398382
   8.48996510 10.36382443  7.78012851
   9.76205617  0.00000000  9.76205617
   7.21787403  0.00000000  9.76205617
   5.23594638 10.36382443  8.48996510
   5.23594638 10.36382443 11.03414724
   6.50803745  2.96109269  6.50803745
  10.47189276  2.96109269  0.00000000
   8.48996510  1.48054635  5.23594638
   8.48996510  1.48054635  1.27209107
   9.76205617  2.96109269  3.25401872
   7.21787403  2.96109269  3.25401872
   5.23594638  1.48054635  1.98192765
   5.23594638  1.48054635  4.52610979
   6.50803745  2.96109269  0.00000000
  10.47189276  2.96109269  6.50803745
   8.48996510  1.48054635 11.74398382
   8.48996510  1.48054635  7.78012851
   9.76205617  2.96109269  9.76205617
   7.21787403  2.96109269  9.76205617
   5.23594638  1.48054635  8.48996510
   5.23594638  1.48054635 11.03414724
   0.00000000  5.92218539  6.50803745
   3.96385531  5.92218539  0.00000000
   1.98192765  4.44163904  5.23594638
   1.98192765  4.44163904  1.27209107
   3.25401872  5.92218539  3.25401872
   0.70983659  5.92218539  3.25401872
  11.74398382  4.44163904  1.98192765
  11.74398382  4.44163904  4.52610979
   0.00000000  5.92218539  0.00000000
   3.96385531  5.92218539  6.50803745
   1.98192765  4.44163904 11.74398382
   1.98192765  4.44163904  7.78012851
   3.25401872  5.92218539  9.76205617
   0.70983659  5.92218539  9.76205617
  11.74398382  4.44163904  8.48996510
  11.74398382  4.44163904 11.03414724
   0.00000000  8.88327808  6.50803745
   3.96385531  8.88327808  0.00000000
   1.98192765  7.40273173  5.23594638
   1.98192765  7.40273173  1.27209107
   3.25401872  8.88327808  3.25401872
   0.70983659  8.88327808  3.25401872
  11.74398382  7.40273173  1.98192765
  11.74398382  7.40273173  4.52610979
   0.00000000  8.88327808  0.00000000
   3.96385531  8.88327808  6.50803745
   1.98192765  7.40273173 11.74398382
   1.98192765  7.40273173  7.78012851
   3.25401872  8.88327808  9.76205617
   0.70983659  8.88327808  9.76205617
  11.74398382  7.40273173  8.48996510
  11.74398382  7.40273173 11.03414724
   0.00000000  0.00000000  6.50803745
   3.96385531  0.00000000  0.00000000
   1.98192765 10.36382443  5.23594638
   1.98192765 10.36382443  1.27209107
   3.25401872  0.00000000  3.25401872
   0.70983659  0.00000000  3.25401872
  11.74398382 10.36382443  1.98192765
  11.74398382 10.36382443  4.52610979
   0.00000000  0.00000000  0.00000000
   3.96385531  0.00000000  6.50803745
   1.98192765 10.36382443 11.74398382
   1.98192765 10.36382443  7.78012851
   3.25401872  0.00000000  9.76205617
   0.70983659  0.00000000  9.76205617
  11.74398382 10.36382443  8.48996510
  11.74398382 10.36382443 11.03414724
   0.00000000  2.96109269  6.50803745
   3.96385531  2.96109269  0.00000000
   1.98192765  1.48054635  5.23594638
   1.98192765  1.48054635  1.27209107
   3.25401872  2.96109269  3.25401872
   0.70983659  2.96109269  3.25401872
  11.74398382  1.48054635  1.98192765
  11.74398382  1.48054635  4.52610979
   0.00000000  2.96109269  0.00000000
   3.96385531  2.96109269  6.50803745
   1.98192765  1.48054635 11.74398382
   1.98192765  1.48054635  7.78012851
   3.25401872  2.96109269  9.76205617
   0.70983659  2.96109269  9.76205617
  11.74398382  1.48054635  8.48996510
  11.74398382  1.48054635 11.03414724
   8.48996510  5.92218539  0.00000000
   5.23594638  4.44163904  0.00000000
   5.23594638  5.92218539  3.25401872
   8.48996510  4.44163904  3.25401872
   8.48996510  5.92218539  6.50803745
   5.23594638  4.44163904  6.50803745
   5.23594638  5.92218539  9.76205617
   8.48996510  4.44163904  9.76205617
   8.48996510  8.88327808  0.00000000
   5.23594638  7.40273173  0.00000000
   5.23594638  8.88327808  3.25401872
   8.48996510  7.40273173  3.25401872
   8.48996510  8.88327808  6.50803745
   5.23594638  7.40273173  6.50803745
   5.23594638  8.88327808  9.76205617
   8.48996510  7.40273173  9.76205617
   8.48996510  0.00000000  0.00000000
   5.23594638 10.36382443  0.00000000
   5.23594638  0.00000000  3.25401872
   8.48996510 10.36382443  3.25401872
   8.48996510  0.00000000  6.50803745
   5.23594638 10.36382443  6.50803745
   5.23594638  0.00000000  9.76205617
   8.48996510 10.36382443  9.76205617
   8.48996510  2.96109269  0.00000000
   5.23594638  1.48054635  0.00000000
   5.23594638  2.96109269  3.25401872
   8.48996510  1.48054635  3.25401872
   8.48996510  2.96109269  6.50803745
   5.23594638  1.48054635  6.50803745
   5.23594638  2.96109269  9.76205617
   8.48996510  1.48054635  9.76205617
   1.98192765  5.92218539  0.00000000
  11.74398382  4.44163904  0.00000000
  11.74398382  5.92218539  3.25401872
   1.98192765  4.44163904  3.25401872
   1.98192765  5.92218539  6.50803745
  11.74398382  4.44163904  6.50803745
  11.74398382  5.92218539  9.76205617
   1.98192765  4.44163904  9.76205617
   1.98192765  8.88327808  0.00000000
  11.74398382  7.40273173  0.00000000
  11.74398382  8.88327808  3.25401872
   1.98192765  7.40273173  3.25401872
   1.98192765  8.88327808  6.50803745
  11.74398382  7.40273173  6.50803745
  11.74398382  8.88327808  9.76205617
   1.98192765  7.40273173  9.76205617
   1.98192765  0.00000000  0.00000000
  11.74398382 10.36382443  0.00000000
  11.74398382  0.00000000  3.25401872
   1.98192765 10.36382443  3.25401872
   1.98192765  0.00000000  6.50803745
  11.74398382 10.36382443  6.50803745
  11.74398382  0.00000000  9.76205617
   1.98192765 10.36382443  9.76205617
   1.98192765  2.96109269  0.00000000
  11.74398382  1.48054635  0.00000000
  11.74398382  2.96109269  3.25401872
   1.98192765  1.48054635  3.25401872
   1.98192765  2.96109269  6.50803745
  11.74398382  1.48054635  6.50803745
  11.74398382  2.96109269  9.76205617
   1.98192765  1.48054635  9.76205617
 


--------------------------------------------------------------------------------------------------------


 k-point   1 :   0.0000 0.0000 0.0000  plane waves:   50911
 k-point   2 :   0.5000 0.0000 0.0000  plane waves:   50996
 k-point   3 :   0.0000 0.0000 0.5000  plane waves:   50996
 k-point   4 :   0.0000 0.5000 0.0000  plane waves:   51004
 k-point   5 :   0.5000 0.5000 0.0000  plane waves:   50876
 k-point   6 :   0.0000 0.5000 0.5000  plane waves:   50876
 k-point   7 :   0.5000 0.0000 0.5000  plane waves:   50908
 k-point   8 :   0.5000 0.5000 0.5000  plane waves:   50992

 maximum and minimum number of plane-waves per node :      2598     2500

 maximum number of plane-waves:     51004
 maximum index in each direction: 
   IXMAX=   23   IYMAX=   21   IZMAX=   23
   IXMIN=  -24   IYMIN=  -22   IZMIN=  -24


 real space projection operators:
  total allocation   :      19472.31 KBytes
  max/ min on nodes  :       1706.00        230.75


 parallel 3D FFT for wavefunctions:
    minimum data exchange during FFTs selected (reduces bandwidth)
 parallel 3D FFT for charge:
    minimum data exchange during FFTs selected (reduces bandwidth)


 total amount of memory used by VASP MPI-rank0    93687. kBytes
=======================================================================

   base      :      30000. kBytes
   nonlr-proj:       5691. kBytes
   fftplans  :       1874. kBytes
   grid      :       3091. kBytes
   one-center:        155. kBytes
   wavefun   :      52876. kBytes
 
     INWAV:  cpu time    0.0000: real time    0.0000
 Broyden mixing: mesh for mixing (old mesh)
   NGX = 47   NGY = 43   NGZ = 47
  (NGX  =144   NGY  =140   NGZ  =144)
  gives a total of  94987 points

 initial charge density was supplied:
 charge density of overlapping atoms calculated
 number of electron    1530.0000000 magnetization 
 keeping initial charge density in first step


--------------------------------------------------------------------------------------------------------


 Maximum index for non-local projection operator          101
 Maximum index for augmentation-charges          211 (set IRDMAX)


--------------------------------------------------------------------------------------------------------


 First call to EWALD:  gamma=   0.141
 Maximum number of real-space cells 3x 3x 3
 Maximum number of reciprocal cells 3x 3x 3

    FEWALD:  cpu time    0.0140: real time    0.0141


--------------------------------------- Iteration      1(   1)  ---------------------------------------


    POTLOK:  cpu time    0.0285: real time    0.0414
    SETDIJ:  cpu time    0.1719: real time    0.1724
     EDDAV:  cpu time   24.1454: real time   24.2033
       DOS:  cpu time    0.0042: real time    0.0042
    --------------------------------------------
      LOOP:  cpu time   24.3500: real time   24.4213

 eigenvalue-minimisations  : 14700
 total energy-change (2. order) : 0.2641645E+05  (-0.7136277E+05)
 number of electron    1530.0000000 magnetization 
 augmentation part     1530.0000000 magnetization 

 Free energy of the ion-electron system (eV)
  ---------------------------------------------------
  alpha Z        PSCENC =      6285.49157376
  Ewald energy   TEWEN  =   -114242.06381717
  -Hartree energ DENC   =    -40416.81772095
  -exchange      EXHF   =         0.00000000
  -V(xc)+E(xc)   XCENC  =      7497.88365659
  PAW double counting   =    124943.95577252  -123918.95408262
  entropy T*S    EENTRO =        -0.03866709
  eigenvalues    EBANDS =      9720.31732671
  atomic energy  EATOM  =    156546.68003192
  Solvation  Ediel_sol  =         0.00000000
  ---------------------------------------------------
  free energy    TOTEN  =     26416.45407366 eV

  energy without entropy =    26416.49274075  energy(sigma->0) =    26416.47340721


--------------------------------------------------------------------------------------------------------




--------------------------------------- Iteration      1(   2)  ---------------------------------------


     EDDAV:  cpu time   24.0430: real time   24.1024
       DOS:  cpu time    0.0049: real time    0.0049
    --------------------------------------------
      LOOP:  cpu time   24.0478: real time   24.1073

 eigenvalue-minimisations  : 14688
 total energy-change (2. order) :-0.2223759E+05  (-0.2120219E+05)
 number of electron    1530.0000000 magnetization 
 augmentation part     1530.0000000 magnetization 

 Free energy of the ion-electron system (eV)
  ---------------------------------------------------
  alpha Z        PSCENC =      6285.49157376
  Ewald energy   TEWEN  =   -114242.06381717
  -Hartree energ DENC   =    -40416.81772095
  -exchange      EXHF   =         0.00000000
  -V(xc)+E(xc)   XCENC  =      7497.88365659
  PAW double counting   =    124943.95577252  -123918.95408262
  entropy T*S    EENTRO =        -0.08458854
  eigenvalues    EBANDS =    -12517.23139276
  atomic energy  EATOM  =    156546.68003192
  Solvation  Ediel_sol  =         0.00000000
  ---------------------------------------------------
  free energy    TOTEN  =      4178.85943274 eV

  energy without entropy =     4178.94402128  energy(sigma->0) =     4178.90172701


--------------------------------------------------------------------------------------------------------




--------------------------------------- Iteration      1(   3)  ---------------------------------------


     EDDAV:  cpu time   27.0895: real time   27.1600
       DOS:  cpu time    0.0042: real time    0.0042
    --------------------------------------------
      LOOP:  cpu time   27.0937: real time   27.1643

 eigenvalue-minimisations  : 17448
 total energy-change (2. order) :-0.5769598E+04  (-0.5533664E+04)
 number of electron    1530.0000000 magnetization 
 augmentation part     1530.0000000 magnetization 

 Free energy of the ion-electron system (eV)
  ---------------------------------------------------
  alpha Z        PSCENC =      6285.49157376
  Ewald energy   TEWEN  =   -114242.06381717
  -Hartree energ DENC   =    -40416.81772095
  -exchange      EXHF   =         0.00000000
  -V(xc)+E(xc)   XCENC  =      7497.88365659
  PAW double counting   =    124943.95577252  -123918.95408262
  entropy T*S    EENTRO =        -0.00036332
  eigenvalues    EBANDS =    -18286.91396720
  atomic energy  EATOM  =    156546.68003192
  Solvation  Ediel_sol  =         0.00000000
  ---------------------------------------------------
  free energy    TOTEN  =     -1590.73891648 eV

  energy without entropy =    -1590.73855316  energy(sigma->0) =    -1590.73873482


--------------------------------------------------------------------------------------------------------




--------------------------------------- Iteration      1(   4)  ---------------------------------------


     EDDAV:  cpu time   30.3439: real time   30.4224
       DOS:  cpu time    0.0016: real time    0.0016
    --------------------------------------------
      LOOP:  cpu time   30.3455: real time   30.4240

 eigenvalue-minimisations  : 20112
 total energy-change (2. order) :-0.6194995E+03  (-0.6157279E+03)
 number of electron    1530.0000000 magnetization 
 augmentation part     1530.0000000 magnetization 

 Free energy of the ion-electron system (eV)
  ---------------------------------------------------
  alpha Z        PSCENC =      6285.49157376
  Ewald energy   TEWEN  =   -114242.06381717
  -Hartree energ DENC   =    -40416.81772095
  -exchange      EXHF   =         0.00000000
  -V(xc)+E(xc)   XCENC  =      7497.88365659
  PAW double counting   =    124943.95577252  -123918.95408262
  entropy T*S    EENTRO =        -0.00000000
  eigenvalues    EBANDS =    -18906.41382064
  atomic energy  EATOM  =    156546.68003192
  Solvation  Ediel_sol  =         0.00000000
  ---------------------------------------------------
  free energy    TOTEN  =     -2210.23840660 eV

  energy without entropy =    -2210.23840660  energy(sigma->0) =    -2210.23840660


--------------------------------------------------------------------------------------------------------




--------------------------------------- Iteration      1(   5)  ---------------------------------------


     EDDAV:  cpu time   33.9228: real time   34.0090
       DOS:  cpu time    0.0018: real time    0.0018
    CHARGE:  cpu time    0.4554: real time    0.4565
    MIXING:  cpu time    0.0018: real time    0.0019
    --------------------------------------------
      LOOP:  cpu time   34.3818: real time   34.4693

 eigenvalue-minimisations  : 23268
 total energy-change (2. order) :-0.5115293E+02  (-0.5111094E+02)
 number of electron    1530.0000213 magnetization 
 augmentation part      319.1055730 magnetization 

 Broyden mixing:
  rms(total) = 0.17660E+02    rms(broyden)= 0.17658E+02
  rms(prec ) = 0.20183E+02
  weight for this iteration     100.00

 Free energy of the ion-electron system (eV)
  ---------------------------------------------------
  alpha Z        PSCENC =      6285.49157376
  Ewald energy   TEWEN  =   -114242.06381717
  -Hartree energ DENC   =    -40416.81772095
  -exchange      EXHF   =         0.00000000
  -V(xc)+E(xc)   XCENC  =      7497.88365659
  PAW double counting   =    124943.95577252  -123918.95408262
  entropy T*S    EENTRO =        -0.00000000
  eigenvalues    EBANDS =    -18957.56674954
  atomic energy  EATOM  =    156546.68003192
  Solvation  Ediel_sol  =         0.00000000
  ---------------------------------------------------
  free energy    TOTEN  =     -2261.39133550 eV

  energy without entropy =    -2261.39133550  energy(sigma->0) =    -2261.39133550


--------------------------------------------------------------------------------------------------------




--------------------------------------- Iteration      1(   6)  ---------------------------------------


    POTLOK:  cpu time    0.0276: real time    0.0281
    SETDIJ:  cpu time    0.1731: real time    0.1736
    EDDIAG:  cpu time    5.9466: real time    5.9608
  RMM-DIIS:  cpu time    8.2895: real time    8.3091
    ORTHCH:  cpu time    3.4777: real time    3.4860
       DOS:  cpu time    0.0069: real time    0.0069
    CHARGE:  cpu time    0.4631: real time    0.4642
    MIXING:  cpu time    0.0012: real time    0.0012
    --------------------------------------------
      LOOP:  cpu time   18.3857: real time   18.4298

 eigenvalue-minimisations  : 21533
 total energy-change (2. order) : 0.5692167E+03  (-0.3187689E+03)
 number of electron    1530.0000252 magnetization 
 augmentation part      327.9511066 magnetization 

 Broyden mixing:
  rms(total) = 0.47666E+01    rms(broyden)= 0.47601E+01
  rms(prec ) = 0.51882E+01
  weight for this iteration     100.00

 eigenvalues of (default mixing * dielectric matrix)
  average eigenvalue GAMMA=   0.8978
  0.8978

 Free energy of the ion-electron system (eV)
  ---------------------------------------------------
  alpha Z        PSCENC =      6285.49157376
  Ewald energy   TEWEN  =   -114242.06381717
  -Hartree energ DENC   =    -39893.00202593
  -exchange      EXHF   =         0.00000000
  -V(xc)+E(xc)   XCENC  =      7555.66260869
  PAW double counting   =    142655.01104479  -141868.02494165
  entropy T*S    EENTRO =        -0.04294624
  eigenvalues    EBANDS =    -18731.88618887
  atomic energy  EATOM  =    156546.68003192
  Solvation  Ediel_sol  =         0.00000000
  ---------------------------------------------------
  free energy    TOTEN  =     -1692.17466069 eV

  energy without entropy =    -1692.13171445  energy(sigma->0) =    -1692.15318757


--------------------------------------------------------------------------------------------------------




--------------------------------------- Iteration      1(   7)  ---------------------------------------


    POTLOK:  cpu time    0.0243: real time    0.0291
    SETDIJ:  cpu time    0.1716: real time    0.1720
    EDDIAG:  cpu time    6.0063: real time    6.0206
  RMM-DIIS:  cpu time    8.1608: real time    8.1801
    ORTHCH:  cpu time    3.5443: real time    3.5527
       DOS:  cpu time    0.0071: real time    0.0071
    CHARGE:  cpu time    0.4540: real time    0.4550
    MIXING:  cpu time    0.0009: real time    0.0009
    --------------------------------------------
      LOOP:  cpu time   18.3693: real time   18.4175

 eigenvalue-minimisations  : 21309
 total energy-change (2. order) :-0.1017416E+01  (-0.3147969E+02)
 number of electron    1530.0000216 magnetization 
 augmentation part      317.6875491 magnetization 

 Broyden mixing:
  rms(total) = 0.39151E+01    rms(broyden)= 0.39148E+01
  rms(prec ) = 0.40315E+01
  weight for this iteration     100.00

 eigenvalues of (default mixing * dielectric matrix)
  average eigenvalue GAMMA=   1.6646
  0.8295  2.4997

 Free energy of the ion-electron system (eV)
  ---------------------------------------------------
  alpha Z        PSCENC =      6285.49157376
  Ewald energy   TEWEN  =   -114242.06381717
  -Hartree energ DENC   =    -39773.75684780
  -exchange      EXHF   =         0.00000000
  -V(xc)+E(xc)   XCENC  =      7535.30114905
  PAW double counting   =    150452.30298059  -149673.74879784
  entropy T*S    EENTRO =        -0.00007818
  eigenvalues    EBANDS =    -18823.39827109
  atomic energy  EATOM  =    156546.68003192
  Solvation  Ediel_sol  =         0.00000000
  ---------------------------------------------------
  free energy    TOTEN  =     -1693.19207677 eV

  energy without entropy =    -1693.19199859  energy(sigma->0) =    -1693.19203768


--------------------------------------------------------------------------------------------------------




--------------------------------------- Iteration      1(   8)  ---------------------------------------


    POTLOK:  cpu time    0.0240: real time    0.0301
    SETDIJ:  cpu time    0.1708: real time    0.1712
    EDDIAG:  cpu time    5.9494: real time    5.9635
  RMM-DIIS:  cpu time    9.3718: real time    9.3939
    ORTHCH:  cpu time    3.5169: real time    3.5252
       DOS:  cpu time    0.0061: real time    0.0061
    CHARGE:  cpu time    0.4515: real time    0.4525
    MIXING:  cpu time    0.0014: real time    0.0014
    --------------------------------------------
[...]
     11.74398      4.44164      8.48997        -0.033108      0.024845     -0.021344
     11.74398      4.44164     11.03415        -0.020735      0.024058      0.050859
      0.00000      8.88328      6.50804         0.014069      0.029491      0.000003
      3.96386      8.88328      0.00000        -0.039476     -0.000027     -0.000023
      1.98193      7.40273      5.23595         0.012046     -0.048509     -0.087016
      1.98193      7.40273      1.27209        -0.011355     -0.026527      0.050006
      3.25402      8.88328      3.25402         0.070065     -0.022345      0.007143
      0.70984      8.88328      3.25402        -0.060441     -0.010185     -0.003395
     11.74398      7.40273      1.98193        -0.020720     -0.024037     -0.050861
     11.74398      7.40273      4.52611        -0.033081     -0.024811      0.021289
      0.00000      8.88328      0.00000         0.020689     -0.002570      0.000001
      3.96386      8.88328      6.50804        -0.038045     -0.138283      0.000038
      1.98193      7.40273     11.74398        -0.011347     -0.026529     -0.049969
      1.98193      7.40273      7.78013         0.012029     -0.048486      0.087031
      3.25402      8.88328      9.76206         0.070056     -0.022320     -0.007135
      0.70984      8.88328      9.76206        -0.060485     -0.010165      0.003361
     11.74398      7.40273      8.48997        -0.033100     -0.024822     -0.021225
     11.74398      7.40273     11.03415        -0.020727     -0.024030      0.050825
      0.00000      0.00000      6.50804         0.012280      0.000051     -0.000009
      3.96386      0.00000      0.00000        -0.039642     -0.000002     -0.000017
      1.98193     10.36382      5.23595        -0.004198      0.047892     -0.087700
      1.98193     10.36382      1.27209        -0.012873      0.018308      0.040735
      3.25402      0.00000      3.25402         0.051770     -0.000007     -0.000486
      0.70984      0.00000      3.25402        -0.069851     -0.000024     -0.003923
     11.74398     10.36382      1.98193        -0.020156      0.019718     -0.047639
     11.74398     10.36382      4.52611        -0.024033      0.020637      0.044574
      0.00000      0.00000      0.00000         0.017612      0.000014      0.000000
      3.96386      0.00000      6.50804        -0.010669      0.000167     -0.000013
      1.98193     10.36382     11.74398        -0.012882      0.018299     -0.040731
      1.98193     10.36382      7.78013        -0.004204      0.047915      0.087640
      3.25402      0.00000      9.76206         0.051880     -0.000134      0.000492
      0.70984      0.00000      9.76206        -0.069894     -0.000107      0.003878
     11.74398     10.36382      8.48997        -0.024040      0.020602     -0.044599
     11.74398     10.36382     11.03415        -0.020181      0.019631      0.047615
      0.00000      2.96109      6.50804         0.014088     -0.029452     -0.000028
      3.96386      2.96109      0.00000        -0.039417      0.000045     -0.000013
      1.98193      1.48055      5.23595        -0.004186     -0.047833     -0.087547
      1.98193      1.48055      1.27209        -0.012884     -0.018331      0.040721
      3.25402      2.96109      3.25402         0.070065      0.022350      0.007138
      0.70984      2.96109      3.25402        -0.060454      0.010191     -0.003388
     11.74398      1.48055      1.98193        -0.020160     -0.019678     -0.047623
     11.74398      1.48055      4.52611        -0.024029     -0.020608      0.044619
      0.00000      2.96109      0.00000         0.020669      0.002537      0.000011
      3.96386      2.96109      6.50804        -0.038096      0.138174     -0.000114
      1.98193      1.48055     11.74398        -0.012878     -0.018318     -0.040593
      1.98193      1.48055      7.78013        -0.004192     -0.047797      0.087467
      3.25402      2.96109      9.76206         0.070074      0.022412     -0.007141
      0.70984      2.96109      9.76206        -0.060521      0.010287      0.003356
     11.74398      1.48055      8.48997        -0.024044     -0.020625     -0.044631
     11.74398      1.48055     11.03415        -0.020176     -0.019671      0.047658
      8.48997      5.92219      0.00000        -0.014929      0.000029      0.000059
      5.23595      4.44164      0.00000         0.011085      0.010320     -0.000051
      5.23595      5.92219      3.25402        -0.011271     -0.000017     -0.017905
      8.48997      4.44164      3.25402         0.059153     -0.038609     -0.250138
      8.48997      5.92219      6.50804         1.032735     -0.000061      0.000062
      5.23595      4.44164      6.50804        -0.446053     -0.832246      0.000212
      5.23595      5.92219      9.76206        -0.011222      0.000098      0.017934
      8.48997      4.44164      9.76206         0.059087     -0.038696      0.250250
      8.48997      8.88328      0.00000         0.033210      0.026398      0.000036
      5.23595      7.40273      0.00000         0.011057     -0.010275     -0.000004
      5.23595      8.88328      3.25402         0.008416      0.082901     -0.115454
      8.48997      7.40273      3.25402         0.059060      0.038665     -0.250221
      8.48997      8.88328      6.50804         0.114107      0.346156     -0.000014
      5.23595      7.40273      6.50804        -0.445814      0.832431     -0.000422
      5.23595      8.88328      9.76206         0.008390      0.082756      0.115380
      8.48997      7.40273      9.76206         0.058989      0.038622      0.250198
      8.48997      0.00000      0.00000        -0.018201      0.000000     -0.000009
      5.23595     10.36382      0.00000         0.010086      0.016088      0.000020
      5.23595      0.00000      3.25402        -0.057140      0.000053     -0.012053
      8.48997     10.36382      3.25402         0.022736      0.051778     -0.048560
      8.48997      0.00000      6.50804         0.008691     -0.000033     -0.000060
      5.23595     10.36382      6.50804        -0.091909      0.202439      0.000024
      5.23595      0.00000      9.76206        -0.057225     -0.000027      0.012096
      8.48997     10.36382      9.76206         0.022778      0.051774      0.048535
      8.48997      2.96109      0.00000         0.033285     -0.026412      0.000106
      5.23595      1.48055      0.00000         0.010034     -0.016083      0.000027
      5.23595      2.96109      3.25402         0.008392     -0.082863     -0.115333
      8.48997      1.48055      3.25402         0.022706     -0.051800     -0.048539
      8.48997      2.96109      6.50804         0.114068     -0.346100      0.000001
      5.23595      1.48055      6.50804        -0.091740     -0.202575     -0.000035
      5.23595      2.96109      9.76206         0.008434     -0.082812      0.115395
      8.48997      1.48055      9.76206         0.022703     -0.051751      0.048511
      1.98193      5.92219      0.00000        -0.005181     -0.000026      0.000003
     11.74398      4.44164      0.00000         0.040147      0.010893     -0.000015
     11.74398      5.92219      3.25402         0.047985      0.000059      0.015738
      1.98193      4.44164      3.25402         0.001042     -0.001011      0.027759
      1.98193      5.92219      6.50804        -0.255343      0.000012      0.000029
     11.74398      4.44164      6.50804         0.161912      0.059831      0.000059
     11.74398      5.92219      9.76206         0.047982     -0.000040     -0.015768
      1.98193      4.44164      9.76206         0.001044     -0.001038     -0.027730
      1.98193      8.88328      0.00000         0.044796      0.014667     -0.000024
     11.74398      7.40273      0.00000         0.040140     -0.010976      0.000101
     11.74398      8.88328      3.25402         0.096412     -0.001768      0.006458
      1.98193      7.40273      3.25402         0.001065      0.000933      0.027760
      1.98193      8.88328      6.50804        -0.034156     -0.023566     -0.000005
     11.74398      7.40273      6.50804         0.162012     -0.059695     -0.000040
     11.74398      8.88328      9.76206         0.096491     -0.001666     -0.006357
      1.98193      7.40273      9.76206         0.001049      0.001045     -0.027788
      1.98193      0.00000      0.00000        -0.006251      0.000080     -0.000054
     11.74398     10.36382      0.00000         0.040044      0.019945      0.000039
     11.74398      0.00000      3.25402         0.026962     -0.000033      0.001038
      1.98193     10.36382      3.25402         0.019652      0.029924      0.033302
      1.98193      0.00000      6.50804        -0.023779     -0.000048      0.000089
     11.74398     10.36382      6.50804         0.100535     -0.003332      0.000035
     11.74398      0.00000      9.76206         0.027132      0.000019     -0.001045
      1.98193     10.36382      9.76206         0.019688      0.029959     -0.033294
      1.98193      2.96109      0.00000         0.044795     -0.014719     -0.000059
     11.74398      1.48055      0.00000         0.040055     -0.019883      0.000052
     11.74398      2.96109      3.25402         0.096451      0.001744      0.006388
      1.98193      1.48055      3.25402         0.019790     -0.029926      0.033333
      1.98193      2.96109      6.50804        -0.034214      0.023469      0.000087
     11.74398      1.48055      6.50804         0.100578      0.003202      0.000060
     11.74398      2.96109      9.76206         0.096481      0.001757     -0.006411
      1.98193      1.48055      9.76206         0.019727     -0.029836     -0.033299
 -----------------------------------------------------------------------------------
    total drift:                                0.963449     -0.000303     -0.000682


--------------------------------------------------------------------------------------------------------



  FREE ENERGIE OF THE ION-ELECTRON SYSTEM (eV)
  ---------------------------------------------------
  free  energy   TOTEN  =     -1706.37335782 eV

  energy  without entropy=    -1706.37022524  energy(sigma->0) =    -1706.37179153
 


--------------------------------------------------------------------------------------------------------


    POTLOK:  cpu time    0.1917: real time    0.1922


--------------------------------------------------------------------------------------------------------


     LOOP+:  cpu time  656.5511: real time  658.2807
    4ORBIT:  cpu time    0.0000: real time    0.0000



 total charge

# of ion       s       p       d       tot
------------------------------------------
    1        1.575   3.500   0.000   5.075
    2        1.575   3.498   0.000   5.073
    3        1.575   3.500   0.000   5.075
    4        1.575   3.500   0.000   5.075
    5        1.575   3.501   0.000   5.076
    6        1.575   3.500   0.000   5.075
    7        1.574   3.498   0.000   5.073
    8        1.575   3.500   0.000   5.075
    9        1.576   3.491   0.000   5.068
   10        1.575   3.500   0.000   5.075
   11        1.575   3.498   0.000   5.073
   12        1.575   3.500   0.000   5.075
   13        1.575   3.501   0.000   5.076
   14        1.574   3.498   0.000   5.073
   15        1.575   3.500   0.000   5.075
   16        1.575   3.501   0.000   5.075
   17        1.575   3.500   0.000   5.075
   18        1.575   3.498   0.000   5.073
   19        1.575   3.500   0.000   5.075
   20        1.575   3.500   0.000   5.075
   21        1.575   3.500   0.000   5.075
   22        1.575   3.500   0.000   5.075
   23        1.574   3.498   0.000   5.073
   24        1.575   3.500   0.000   5.075
   25        1.574   3.501   0.000   5.076
   26        1.575   3.500   0.000   5.075
   27        1.575   3.498   0.000   5.073
   28        1.575   3.500   0.000   5.075
   29        1.575   3.500   0.000   5.075
   30        1.574   3.498   0.000   5.073
   31        1.575   3.500   0.000   5.075
   32        1.575   3.500   0.000   5.075
   33        1.575   3.500   0.000   5.075
   34        1.575   3.500   0.000   5.075
   35        1.575   3.500   0.000   5.075
   36        1.575   3.500   0.000   5.075
   37        1.575   3.500   0.000   5.075
   38        1.575   3.500   0.000   5.075
   39        1.575   3.500   0.000   5.075
   40        1.575   3.500   0.000   5.075
   41        1.575   3.500   0.000   5.075
   42        1.575   3.500   0.000   5.075
   43        1.575   3.500   0.000   5.075
   44        1.575   3.500   0.000   5.075
   45        1.575   3.500   0.000   5.075
   46        1.575   3.500   0.000   5.075
   47        1.575   3.500   0.000   5.075
   48        1.575   3.501   0.000   5.075
   49        1.575   3.500   0.000   5.075
   50        1.575   3.500   0.000   5.075
   51        1.575   3.500   0.000   5.075
   52        1.575   3.500   0.000   5.075
   53        1.575   3.500   0.000   5.075
   54        1.575   3.500   0.000   5.075
   55        1.575   3.500   0.000   5.075
   56        1.575   3.500   0.000   5.075
   57        1.574   3.501   0.000   5.076
   58        1.575   3.500   0.000   5.075
   59        1.575   3.500   0.000   5.075
   60        1.575   3.500   0.000   5.075
   61        1.575   3.500   0.000   5.075
   62        1.575   3.500   0.000   5.075
   63        1.575   3.500   0.000   5.075
   64        1.575   3.499   0.000   5.074
   65        1.575   3.500   0.000   5.075
   66        1.575   3.501   0.000   5.075
   67        1.575   3.500   0.000   5.075
   68        1.575   3.500   0.000   5.075
   69        1.575   3.500   0.000   5.075
   70        1.575   3.500   0.000   5.075
   71        1.575   3.501   0.000   5.075
   72        1.575   3.500   0.000   5.075
   73        1.575   3.495   0.000   5.069
   74        1.575   3.500   0.000   5.075
   75        1.575   3.501   0.000   5.075
   76        1.575   3.500   0.000   5.075
   77        1.575   3.500   0.000   5.075
   78        1.575   3.501   0.000   5.075
   79        1.575   3.500   0.000   5.075
   80        1.575   3.500   0.000   5.074
   81        1.575   3.500   0.000   5.075
   82        1.575   3.501   0.000   5.075
   83        1.575   3.500   0.000   5.075
   84        1.575   3.500   0.000   5.075
   85        1.575   3.500   0.000   5.075
   86        1.575   3.500   0.000   5.075
   87        1.575   3.501   0.000   5.075
   88        1.575   3.500   0.000   5.075
   89        1.577   3.490   0.000   5.067
   90        1.575   3.500   0.000   5.075
   91        1.575   3.501   0.000   5.075
   92        1.575   3.500   0.000   5.075
   93        1.575   3.500   0.000   5.075
   94        1.575   3.501   0.000   5.075
   95        1.575   3.500   0.000   5.075
   96        1.575   3.500   0.000   5.075
   97        1.575   3.500   0.000   5.075
   98        1.575   3.500   0.000   5.075
   99        1.575   3.500   0.000   5.075
  100        1.575   3.500   0.000   5.075
  101        1.575   3.500   0.000   5.075
  102        1.575   3.500   0.000   5.075
  103        1.575   3.500   0.000   5.075
  104        1.575   3.500   0.000   5.075
  105        1.575   3.499   0.000   5.074
  106        1.575   3.500   0.000   5.075
  107        1.575   3.500   0.000   5.075
  108        1.575   3.500   0.000   5.075
  109        1.575   3.500   0.000   5.075
  110        1.575   3.500   0.000   5.075
  111        1.575   3.500   0.000   5.075
  112        1.575   3.500   0.000   5.074
  113        1.575   3.500   0.000   5.075
  114        1.575   3.500   0.000   5.075
  115        1.575   3.500   0.000   5.075
  116        1.575   3.500   0.000   5.075
  117        1.575   3.500   0.000   5.075
  118        1.575   3.500   0.000   5.075
  119        1.575   3.500   0.000   5.075
  120        1.575   3.500   0.000   5.075
  121        1.577   3.490   0.000   5.067
  122        1.575   3.500   0.000   5.075
  123        1.575   3.500   0.000   5.075
  124        1.575   3.500   0.000   5.075
  125        1.575   3.500   0.000   5.075
  126        1.575   3.500   0.000   5.075
  127        1.575   3.500   0.000   5.075
  128        2.221   6.298   1.712  10.231
  129        2.221   6.298   1.713  10.231
  130        2.220   6.297   1.716  10.234
  131        2.221   6.298   1.714  10.232
  132        2.212   6.257   1.731  10.200
  133        2.210   6.256   1.723  10.189
  134        2.220   6.297   1.716  10.234
  135        2.221   6.298   1.714  10.232
  136        2.221   6.298   1.713  10.231
  137        2.221   6.298   1.713  10.231
  138        2.221   6.297   1.716  10.233
  139        2.221   6.298   1.714  10.232
  140        2.221   6.298   1.711  10.230
  141        2.210   6.256   1.723  10.189
  142        2.221   6.297   1.716  10.233
  143        2.221   6.298   1.714  10.232
  144        2.221   6.298   1.712  10.230
  145        2.221   6.298   1.712  10.231
  146        2.221   6.298   1.713  10.231
  147        2.221   6.298   1.713  10.231
  148        2.221   6.298   1.712  10.231
  149        2.220   6.297   1.716  10.233
  150        2.221   6.298   1.713  10.231
  151        2.221   6.298   1.713  10.231
  152        2.221   6.298   1.713  10.231
  153        2.221   6.298   1.712  10.231
  154        2.221   6.297   1.716  10.233
  155        2.221   6.298   1.713  10.231
  156        2.221   6.298   1.711  10.230
  157        2.220   6.297   1.716  10.233
  158        2.221   6.297   1.716  10.233
  159        2.221   6.298   1.713  10.231
  160        2.221   6.298   1.712  10.230
  161        2.221   6.298   1.712  10.231
  162        2.221   6.298   1.712  10.230
  163        2.221   6.298   1.712  10.231
  164        2.220   6.296   1.716  10.232
  165        2.220   6.296   1.721  10.237
  166        2.221   6.298   1.712  10.230
  167        2.221   6.298   1.712  10.231
  168        2.221   6.298   1.712  10.231
  169        2.221   6.298   1.712  10.231
  170        2.221   6.298   1.712  10.231
  171        2.221   6.298   1.712  10.231
  172        2.220   6.297   1.720  10.237
  173        2.220   6.296   1.721  10.237
  174        2.221   6.298   1.712  10.231
  175        2.221   6.298   1.712  10.231
  176        2.221   6.298   1.712  10.231
  177        2.221   6.298   1.712  10.231
  178        2.221   6.298   1.712  10.230
  179        2.221   6.298   1.713  10.231
  180        2.221   6.298   1.712  10.230
  181        2.221   6.298   1.712  10.231
  182        2.221   6.298   1.712  10.230
  183        2.221   6.298   1.713  10.231
  184        2.221   6.298   1.712  10.231
  185        2.221   6.298   1.712  10.231
  186        2.221   6.298   1.712  10.231
  187        2.221   6.298   1.713  10.231
  188        2.220   6.297   1.720  10.237
  189        2.221   6.298   1.712  10.231
  190        2.221   6.298   1.712  10.231
  191        2.221   6.298   1.713  10.231
--------------------------------------------------
tot        342.086 847.407 109.6981299.190
 

 total amount of memory used by VASP MPI-rank0    93687. kBytes
=======================================================================

   base      :      30000. kBytes
   nonlr-proj:       5691. kBytes
   fftplans  :       1874. kBytes
   grid      :       3091. kBytes
   one-center:        155. kBytes
   wavefun   :      52876. kBytes
 
  
  
 General timing and accounting informations for this job:
 ========================================================
  
                  Total CPU time used (sec):      702.736
                            User time (sec):      697.024
                          System time (sec):        5.712
                         Elapsed time (sec):      705.911
  
                   Maximum memory used (kb):      328700.
                   Average memory used (kb):          N/A
  
                          Minor page faults:        71132
                          Major page faults:            0
                 Voluntary context switches:         5893
