 vasp.6.2.0 18Jan21 (build Mar 03 2021 13:27:41) complex                        
  
 executed on             LinuxIFC date 2021.10.11  14:55:06
 running on  120 total cores
 distrk:  each k-point on  120 cores,    1 groups
 distr:  one band on NCORE=  20 cores,    6 groups


--------------------------------------------------------------------------------------------------------


 INCAR:
   SYSTEM = TiO2-rutile
   ISMEAR = 0
   SIGMA = 0.05
   EDIFF = 1E-5
   ALGO = Fast
   ISYM = 0
   GGA = PE
   IBRION = -1
   NSW = 0
   EDIFFG = -0.01
   ENCUT = 500
   PREC = Normal
   LASPH = .TRUE.
   LREAL = Auto
   ISPIN = 1
   NELM = 300
   NCORE = 20
   LWAVE = .FALSE.
   LCHARG = .FALSE.
   LORBIT = 11

 POTCAR:    PAW_PBE O 08Apr2002                   
 POTCAR:    PAW_PBE Ti_sv 26Sep2005               
 POTCAR:    PAW_PBE O 08Apr2002                   
   SHA256 =  818f92134a0a090dccd8ba1447fa70422a3b330e708bb4f08108d8ae51209ddf O/POTCAR              
   COPYR  = (c) Copyright 08Apr2002 Georg Kresse                                                    
   COPYR  = This file is part of the software VASP. Any use, copying, and all other rights are regul
   COPYR  = If you do not have a valid VASP license, you may not use, copy or distribute this file. 
   VRHFIN =O: s2p4                                                                                  
   LEXCH  = PE                                                                                      
   EATOM  =   432.3788 eV,   31.7789 Ry                                                             
                                                                                                    
   TITEL  = PAW_PBE O 08Apr2002                                                                     
   LULTRA =        F    use ultrasoft PP ?                                                          
   IUNSCR =        1    unscreen: 0-lin 1-nonlin 2-no                                               
   RPACOR =    1.200    partial core radius                                                         
   POMASS =   16.000; ZVAL   =    6.000    mass and valenz                                          
   RCORE  =    1.520    outmost cutoff radius                                                       
   RWIGS  =    1.550; RWIGS  =    0.820    wigner-seitz radius (au A)                               
   ENMAX  =  400.000; ENMIN  =  300.000 eV                                                          
   ICORE  =        2    local potential                                                             
   LCOR   =        T    correct aug charges                                                         
   LPAW   =        T    paw PP                                                                      
   EAUG   =  605.392                                                                                
   DEXC   =    0.000                                                                                
   RMAX   =    1.553    core radius for proj-oper                                                   
   RAUG   =    1.300    factor for augmentation sphere                                              
   RDEP   =    1.550    radius for radial grids                                                     
   RDEPT  =    1.329    core radius for aug-charge                                                  
                                                                                                    
   Atomic configuration                                                                             
    4 entries                                                                                       
     n  l   j            E        occ.                                                              
     1  0  0.50      -514.6923   2.0000                                                             
     2  0  0.50       -23.9615   2.0000                                                             
     2  1  0.50        -9.0305   4.0000                                                             
     3  2  1.50        -9.5241   0.0000                                                             
   Description                                                                                      
     l       E           TYP  RCUT    TYP  RCUT                                                     
     0    -23.9615318     23  1.200                                                                 
     0     -9.5240782     23  1.200                                                                 
     1     -9.0304911     23  1.520                                                                 
     1      8.1634956     23  1.520                                                                 
     2     -9.5240782      7  1.500                                                                 
  local pseudopotential read in
  partial core-charges read in
  partial kinetic energy density read in
  kinetic energy density of atom read in
  atomic valenz-charges read in
  non local Contribution for L=           0  read in
    real space projection operators read in
  non local Contribution for L=           0  read in
    real space projection operators read in
  non local Contribution for L=           1  read in
    real space projection operators read in
  non local Contribution for L=           1  read in
    real space projection operators read in
    PAW grid and wavefunctions read in
 
   number of l-projection  operators is LMAX  =           4
   number of lm-projection operators is LMMAX =           8
 
 POTCAR:    PAW_PBE Ti_sv 26Sep2005               
   SHA256 =  4d747badb5a5ea28d858fbac70885b3f8929d6fd9e5b0dbe1ecb9878dc164da1 Ti_sv/POTCAR          
   COPYR  = (c) Copyright 26Sep2005 Georg Kresse                                                    
   COPYR  = This file is part of the software VASP. Any use, copying, and all other rights are regul
   COPYR  = If you do not have a valid VASP license, you may not use, copy or distribute this file. 
   VRHFIN =Ti: 3p4s3d                                                                               
   LEXCH  = PE                                                                                      
   EATOM  =  1588.0892 eV,  116.7213 Ry                                                             
                                                                                                    
   TITEL  = PAW_PBE Ti_sv 26Sep2005                                                                 
   LULTRA =        F    use ultrasoft PP ?                                                          
   IUNSCR =        1    unscreen: 0-lin 1-nonlin 2-no                                               
   RPACOR =    2.000    partial core radius                                                         
   POMASS =   47.880; ZVAL   =   12.000    mass and valenz                                          
   RCORE  =    2.300    outmost cutoff radius                                                       
   RWIGS  =    2.300; RWIGS  =    1.217    wigner-seitz radius (au A)                               
   ENMAX  =  274.610; ENMIN  =  205.957 eV                                                          
   ICORE  =        3    local potential                                                             
   LCOR   =        T    correct aug charges                                                         
   LPAW   =        T    paw PP                                                                      
   EAUG   =  482.848                                                                                
   RMAX   =    2.348    core radius for proj-oper                                                   
   RAUG   =    1.300    factor for augmentation sphere                                              
   RDEP   =    2.381    radius for radial grids                                                     
   RDEPT  =    1.930    core radius for aug-charge                                                  
                                                                                                    
   Atomic configuration                                                                             
    8 entries                                                                                       
     n  l   j            E        occ.                                                              
     1  0  0.50     -4865.3608   2.0000                                                             
     2  0  0.50      -533.1368   2.0000                                                             
     2  1  1.50      -440.5031   6.0000                                                             
     3  0  0.50       -59.3186   2.0000                                                             
     4  0  0.50        -3.7291   1.0000                                                             
     3  1  1.50       -35.7012   6.0000                                                             
     3  2  2.50        -1.9157   3.0000                                                             
     4  3  2.50        -1.3606   0.0000                                                             
   Description                                                                                      
     l       E           TYP  RCUT    TYP  RCUT                                                     
     0    -59.3185931     23  1.800                                                                 
     0     -3.7290822     23  2.300                                                                 
     1    -35.7012045     23  2.300                                                                 
     1     -1.3605826     23  2.300                                                                 
     2     -1.9156920     23  2.300                                                                 
     2     -0.0236318     23  2.300                                                                 
     3     -1.3605826     23  2.300                                                                 
  local pseudopotential read in
  partial core-charges read in
  partial kinetic energy density read in
  atomic valenz-charges read in
  non local Contribution for L=           0  read in
    real space projection operators read in
  non local Contribution for L=           0  read in
    real space projection operators read in
  non local Contribution for L=           1  read in
    real space projection operators read in
  non local Contribution for L=           1  read in
    real space projection operators read in
  non local Contribution for L=           2  read in
    real space projection operators read in
  non local Contribution for L=           2  read in
    real space projection operators read in
    PAW grid and wavefunctions read in
 
   number of l-projection  operators is LMAX  =           6
   number of lm-projection operators is LMMAX =          18
 
 Optimization of the real space projectors (new method)

 maximal supplied QI-value         = 24.76
 optimisation between [QCUT,QGAM] = [ 11.39, 22.77] = [ 36.31,145.25] Ry 
 Optimized for a Real-space Cutoff    1.00 Angstroem

   l    n(q)    QCUT    max X(q) W(low)/X(q) W(high)/X(q)  e(spline) 
   0      7    11.387    20.381    0.39E-03    0.13E-02    0.15E-06
   0      7    11.387    15.268    0.42E-03    0.14E-02    0.17E-06
   1      6    11.387     5.964    0.41E-03    0.11E-02    0.17E-06
   1      6    11.387     5.382    0.39E-03    0.87E-03    0.15E-06
 Optimization of the real space projectors (new method)

 maximal supplied QI-value         = 16.25
 optimisation between [QCUT,QGAM] = [ 11.38, 22.75] = [ 36.24,144.96] Ry 
 Optimized for a Real-space Cutoff    1.27 Angstroem

   l    n(q)    QCUT    max X(q) W(low)/X(q) W(high)/X(q)  e(spline) 
   0      9    11.376    12.277    0.53E-04    0.25E-04    0.25E-07
   0      9    11.376    11.419    0.89E-04    0.67E-05    0.35E-07
   1      8    11.376     4.010    0.13E-03    0.11E-03    0.29E-07
   1      8    11.376     6.182    0.94E-04    0.19E-03    0.11E-06
   2      8    11.376    47.177    0.13E-03    0.88E-03    0.24E-06
   2      8    11.376    42.437    0.13E-03    0.86E-03    0.23E-06
  PAW_PBE O 08Apr2002                   :
 energy of atom  1       EATOM= -432.3788
 kinetic energy error for atom=    0.0224 (will be added to EATOM!!)
  PAW_PBE Ti_sv 26Sep2005               :
 energy of atom  2       EATOM=-1588.0892
 kinetic energy error for atom=    0.0046 (will be added to EATOM!!)
 
 
 POSCAR:  O Ti
  positions in direct lattice
  No initial velocities read in
 exchange correlation table for  LEXCH =        8
   RHO(1)=    0.500       N(1)  =     2000
   RHO(2)=  100.500       N(2)  =     4000
 


--------------------------------------------------------------------------------------------------------


 ion  position               nearest neighbor table
   1  0.098  0.125  0.383- 162 1.95 172 1.95 161 1.98
   2  0.402  0.125  0.383- 202 1.95 212 1.95 161 1.98
   3  0.250  0.000  0.360- 161 1.95 191 1.95
   4  0.250  0.000  0.406- 161 1.95 191 1.95 164 1.98
   5  0.348  0.125  0.441- 164 1.95 174 1.95 203 1.98
   6  0.152  0.125  0.441- 164 1.95 174 1.95 163 1.98
   7  0.000  0.000  0.419- 163 1.95 193 1.95 162 1.98
   8  0.000  0.000  0.464- 163 1.95 193 1.95 166 1.98
   9  0.098  0.125  0.500- 166 1.95 176 1.95 165 1.98
  10  0.402  0.125  0.500- 206 1.95 216 1.95 165 1.98
  11  0.250  0.000  0.477- 165 1.95 195 1.95 164 1.98
  12  0.250  0.000  0.523- 165 1.95 195 1.95 168 2.10
  13  0.350  0.125  0.559- 167 1.95 168 1.97 178 1.97
  14  0.150  0.125  0.559- 207 1.95 168 1.97 178 1.97
  15  0.000  1.000  0.536- 207 1.90 237 1.90 166 2.00
  16  0.000  0.000  0.582- 170 1.81 207 2.01 237 2.01
  17  0.094  0.125  0.620- 170 1.94 180 1.94 169 2.04
  18  0.406  0.125  0.620- 210 1.94 220 1.94 169 2.04
  19  0.250  0.500  0.594- 188 1.86 189 2.09 179 2.09
  20  0.250  0.000  0.640- 199 1.83 169 1.83
  21  0.098  0.375  0.383- 172 1.95 182 1.95 171 1.98
  22  0.402  0.375  0.383- 212 1.95 222 1.95 171 1.98
  23  0.250  0.250  0.360- 161 1.95 171 1.95
  24  0.250  0.250  0.406- 161 1.95 171 1.95 174 1.98
  25  0.348  0.375  0.441- 174 1.95 184 1.95 213 1.98
  26  0.152  0.375  0.441- 174 1.95 184 1.95 173 1.98
  27  0.000  0.250  0.419- 163 1.95 173 1.95 172 1.98
  28  0.000  0.250  0.464- 163 1.95 173 1.95 176 1.98
  29  0.098  0.375  0.500- 176 1.95 186 1.95 175 1.98
  30  0.402  0.375  0.500- 216 1.95 226 1.95 175 1.98
  31  0.250  0.250  0.477- 165 1.95 175 1.95 174 1.98
  32  0.250  0.250  0.523- 165 1.95 175 1.95 178 2.10
  33  0.350  0.375  0.559- 177 1.95 178 1.97 188 1.97
  34  0.150  0.375  0.559- 217 1.95 178 1.97 188 1.97
  35  0.000  0.250  0.536- 207 1.90 217 1.90 176 2.00
  36  0.000  0.250  0.582- 180 1.81 207 2.01 217 2.01
  37  0.094  0.375  0.620- 190 1.94 180 1.94 179 2.04
  38  0.406  0.375  0.620- 230 1.94 220 1.94 179 2.04
  39  0.250  0.250  0.594- 178 1.86 169 2.09 179 2.09
  40  0.250  0.250  0.640- 179 1.83 169 1.83
  41  0.098  0.625  0.383- 182 1.95 192 1.95 181 1.98
  42  0.402  0.625  0.383- 222 1.95 232 1.95 181 1.98
  43  0.250  0.500  0.360- 171 1.95 181 1.95
  44  0.250  0.500  0.406- 171 1.95 181 1.95 184 1.98
  45  0.348  0.625  0.441- 184 1.95 194 1.95 223 1.98
  46  0.152  0.625  0.441- 184 1.95 194 1.95 183 1.98
  47  0.000  0.500  0.419- 173 1.95 183 1.95 182 1.98
  48  0.000  0.500  0.464- 173 1.95 183 1.95 186 1.98
  49  0.098  0.625  0.500- 186 1.95 196 1.95 185 1.98
  50  0.402  0.625  0.500- 226 1.95 236 1.95 185 1.98
  51  0.250  0.500  0.477- 175 1.95 185 1.95 184 1.98
  52  0.250  0.500  0.523- 175 1.95 185 1.95 188 2.10
  53  0.350  0.625  0.559- 187 1.95 188 1.97 198 1.97
  54  0.150  0.625  0.559- 227 1.95 188 1.97 198 1.97
  55  0.000  0.500  0.536- 227 1.90 217 1.90 186 2.00
  56  0.000  0.500  0.582- 190 1.81 227 2.01 217 2.01
  57  0.094  0.625  0.620- 190 1.94 200 1.94 189 2.04
  58  0.406  0.625  0.620- 230 1.94 240 1.94 189 2.04
  59  0.250  1.000  0.594- 168 1.86 169 2.09 199 2.09
  60  0.250  0.500  0.640- 179 1.83 189 1.83
  61  0.098  0.875  0.383- 162 1.95 192 1.95 191 1.98
  62  0.402  0.875  0.383- 202 1.95 232 1.95 191 1.98
  63  0.250  0.750  0.360- 181 1.95 191 1.95
  64  0.250  0.750  0.406- 181 1.95 191 1.95 194 1.98
  65  0.348  0.875  0.441- 164 1.95 194 1.95 233 1.98
  66  0.152  0.875  0.441- 164 1.95 194 1.95 193 1.98
  67  0.000  0.750  0.419- 183 1.95 193 1.95 192 1.98
  68  0.000  0.750  0.464- 183 1.95 193 1.95 196 1.98
  69  0.098  0.875  0.500- 166 1.95 196 1.95 195 1.98
  70  0.402  0.875  0.500- 206 1.95 236 1.95 195 1.98
  71  0.250  0.750  0.477- 185 1.95 195 1.95 194 1.98
  72  0.250  0.750  0.523- 185 1.95 195 1.95 198 2.10
  73  0.350  0.875  0.559- 197 1.95 198 1.97 168 1.97
  74  0.150  0.875  0.559- 237 1.95 198 1.97 168 1.97
  75  0.000  0.750  0.536- 227 1.90 237 1.90 196 2.00
  76  0.000  0.750  0.582- 200 1.81 227 2.01 237 2.01
  77  0.094  0.875  0.620- 170 1.94 200 1.94 199 2.04
  78  0.406  0.875  0.620- 210 1.94 240 1.94 199 2.04
  79  0.250  0.750  0.594- 198 1.86 189 2.09 199 2.09
  80  0.250  0.750  0.640- 199 1.83 189 1.83
  81  0.598  0.125  0.383- 202 1.95 212 1.95 201 1.98
  82  0.902  0.125  0.383- 162 1.95 172 1.95 201 1.98
  83  0.750  0.000  0.360- 201 1.95 231 1.95
  84  0.750  0.000  0.406- 201 1.95 231 1.95 204 1.98
  85  0.848  0.125  0.441- 204 1.95 214 1.95 163 1.98
  86  0.652  0.125  0.441- 204 1.95 214 1.95 203 1.98
  87  0.500  0.000  0.419- 203 1.95 233 1.95 202 1.98
  88  0.500  0.000  0.464- 203 1.95 233 1.95 206 1.98
  89  0.598  0.125  0.500- 206 1.95 216 1.95 205 1.98
  90  0.902  0.125  0.500- 166 1.95 176 1.95 205 1.98
  91  0.750  0.000  0.477- 205 1.95 235 1.95 204 1.98
  92  0.750  0.000  0.523- 205 1.95 235 1.95 208 2.10
  93  0.850  0.125  0.559- 207 1.95 208 1.97 218 1.97
  94  0.650  0.125  0.559- 167 1.95 208 1.97 218 1.97
  95  0.500  1.000  0.536- 167 1.90 197 1.90 206 2.00
  96  0.500  0.000  0.582- 210 1.81 167 2.01 197 2.01
  97  0.594  0.125  0.620- 210 1.94 220 1.94 209 2.04
  98  0.906  0.125  0.620- 170 1.94 180 1.94 209 2.04
  99  0.750  0.500  0.594- 228 1.86 229 2.09 219 2.09
 100  0.750  0.000  0.640- 239 1.83 209 1.83
 101  0.598  0.375  0.383- 212 1.95 222 1.95 211 1.98
 102  0.902  0.375  0.383- 172 1.95 182 1.95 211 1.98
 103  0.750  0.250  0.360- 201 1.95 211 1.95
 104  0.750  0.250  0.406- 201 1.95 211 1.95 214 1.98
 105  0.848  0.375  0.441- 214 1.95 224 1.95 173 1.98
 106  0.652  0.375  0.441- 214 1.95 224 1.95 213 1.98
 107  0.500  0.250  0.419- 203 1.95 213 1.95 212 1.98
 108  0.500  0.250  0.464- 203 1.95 213 1.95 216 1.98
 109  0.598  0.375  0.500- 216 1.95 226 1.95 215 1.98
 110  0.902  0.375  0.500- 176 1.95 186 1.95 215 1.98
 111  0.750  0.250  0.477- 205 1.95 215 1.95 214 1.98
 112  0.750  0.250  0.523- 205 1.95 215 1.95 218 2.10
 113  0.850  0.375  0.559- 217 1.95 218 1.97 228 1.97
 114  0.650  0.375  0.559- 177 1.95 218 1.97 228 1.97
 115  0.500  0.250  0.536- 167 1.90 177 1.90 216 2.00
 116  0.500  0.250  0.582- 220 1.81 167 2.01 177 2.01
 117  0.594  0.375  0.620- 230 1.94 220 1.94 219 2.04
 118  0.906  0.375  0.620- 190 1.94 180 1.94 219 2.04
 119  0.750  0.250  0.594- 218 1.86 209 2.09 219 2.09
 120  0.750  0.250  0.640- 219 1.83 209 1.83
 121  0.598  0.625  0.383- 222 1.95 232 1.95 221 1.98
 122  0.902  0.625  0.383- 182 1.95 192 1.95 221 1.98
 123  0.750  0.500  0.360- 211 1.95 221 1.95
 124  0.750  0.500  0.406- 211 1.95 221 1.95 224 1.98
 125  0.848  0.625  0.441- 224 1.95 234 1.95 183 1.98
 126  0.652  0.625  0.441- 224 1.95 234 1.95 223 1.98
 127  0.500  0.500  0.419- 213 1.95 223 1.95 222 1.98
 128  0.500  0.500  0.464- 213 1.95 223 1.95 226 1.98
 129  0.598  0.625  0.500- 226 1.95 236 1.95 225 1.98
 130  0.902  0.625  0.500- 186 1.95 196 1.95 225 1.98
 131  0.750  0.500  0.477- 215 1.95 225 1.95 224 1.98
 132  0.750  0.500  0.523- 215 1.95 225 1.95 228 2.10
 133  0.850  0.625  0.559- 227 1.95 228 1.97 238 1.97
 134  0.650  0.625  0.559- 187 1.95 228 1.97 238 1.97
 135  0.500  0.500  0.536- 187 1.90 177 1.90 226 2.00
 136  0.500  0.500  0.582- 230 1.81 187 2.01 177 2.01
 137  0.594  0.625  0.620- 230 1.94 240 1.94 229 2.04
 138  0.906  0.625  0.620- 190 1.94 200 1.94 229 2.04
 139  0.750  1.000  0.594- 208 1.86 209 2.09 239 2.09
 140  0.750  0.500  0.640- 219 1.83 229 1.83
 141  0.598  0.875  0.383- 202 1.95 232 1.95 231 1.98
 142  0.902  0.875  0.383- 162 1.95 192 1.95 231 1.98
 143  0.750  0.750  0.360- 221 1.95 231 1.95
 144  0.750  0.750  0.406- 221 1.95 231 1.95 234 1.98
 145  0.848  0.875  0.441- 204 1.95 234 1.95 193 1.98
 146  0.652  0.875  0.441- 204 1.95 234 1.95 233 1.98
 147  0.500  0.750  0.419- 223 1.95 233 1.95 232 1.98
 148  0.500  0.750  0.464- 223 1.95 233 1.95 236 1.98
 149  0.598  0.875  0.500- 206 1.95 236 1.95 235 1.98
 150  0.902  0.875  0.500- 166 1.95 196 1.95 235 1.98
 151  0.750  0.750  0.477- 225 1.95 235 1.95 234 1.98
 152  0.750  0.750  0.523- 225 1.95 235 1.95 238 2.10
 153  0.850  0.875  0.559- 237 1.95 238 1.97 208 1.97
 154  0.650  0.875  0.559- 197 1.95 238 1.97 208 1.97
 155  0.500  0.750  0.536- 187 1.90 197 1.90 236 2.00
 156  0.500  0.750  0.582- 240 1.81 187 2.01 197 2.01
 157  0.594  0.875  0.620- 210 1.94 240 1.94 239 2.04
 158  0.906  0.875  0.620- 170 1.94 200 1.94 239 2.04
 159  0.750  0.750  0.594- 238 1.86 229 2.09 239 2.09
 160  0.750  0.750  0.640- 239 1.83 229 1.83
 161  0.250  0.125  0.383-   3 1.95   4 1.95  23 1.95  24 1.95   1 1.98   2 1.98
 162  0.000  0.000  0.383-   1 1.95  61 1.95  82 1.95 142 1.95   7 1.98
 163  0.000  0.125  0.441-   7 1.95  27 1.95   8 1.95  28 1.95   6 1.98  85 1.98
 164  0.250  0.000  0.441-   5 1.95   6 1.95  65 1.95  66 1.95   4 1.98  11 1.98
 165  0.250  0.125  0.500-  11 1.95  12 1.95  31 1.95  32 1.95   9 1.98  10 1.98
 166  0.000  0.000  0.500-   9 1.95  69 1.95  90 1.95 150 1.95   8 1.98  15 2.00
 167  0.500  0.125  0.557-  95 1.90 115 1.90  13 1.95  94 1.95 116 2.01  96 2.01
 168  0.250  0.000  0.561-  59 1.86  14 1.97  74 1.97  13 1.97  73 1.97  12 2.10
 169  0.250  0.125  0.621-  40 1.83  20 1.83  18 2.04  17 2.04  39 2.09  59 2.09
 170  0.000  1.000  0.614-  16 1.81  77 1.94  17 1.94 158 1.94  98 1.94
 171  0.250  0.375  0.383-  23 1.95  24 1.95  43 1.95  44 1.95  21 1.98  22 1.98
 172  0.000  0.250  0.383-   1 1.95  21 1.95  82 1.95 102 1.95  27 1.98
 173  0.000  0.375  0.441-  27 1.95  47 1.95  28 1.95  48 1.95  26 1.98 105 1.98
 174  0.250  0.250  0.441-   5 1.95   6 1.95  25 1.95  26 1.95  24 1.98  31 1.98
 175  0.250  0.375  0.500-  31 1.95  32 1.95  51 1.95  52 1.95  29 1.98  30 1.98
 176  0.000  0.250  0.500-   9 1.95  29 1.95  90 1.95 110 1.95  28 1.98  35 2.00
 177  0.500  0.375  0.557- 135 1.90 115 1.90  33 1.95 114 1.95 136 2.01 116 2.01
 178  0.250  0.250  0.561-  39 1.86  34 1.97  14 1.97  33 1.97  13 1.97  32 2.10
 179  0.250  0.375  0.621-  40 1.83  60 1.83  38 2.04  37 2.04  39 2.09  19 2.09
 180  0.000  0.250  0.614-  36 1.81  37 1.94 118 1.94  17 1.94  98 1.94
 181  0.250  0.625  0.383-  43 1.95  44 1.95  63 1.95  64 1.95  41 1.98  42 1.98
 182  0.000  0.500  0.383-  21 1.95  41 1.95 102 1.95 122 1.95  47 1.98
 183  0.000  0.625  0.441-  47 1.95  67 1.95  48 1.95  68 1.95  46 1.98 125 1.98
 184  0.250  0.500  0.441-  25 1.95  26 1.95  45 1.95  46 1.95  44 1.98  51 1.98
 185  0.250  0.625  0.500-  51 1.95  52 1.95  71 1.95  72 1.95  49 1.98  50 1.98
 186  0.000  0.500  0.500-  29 1.95  49 1.95 110 1.95 130 1.95  48 1.98  55 2.00
 187  0.500  0.625  0.557- 135 1.90 155 1.90  53 1.95 134 1.95 156 2.01 136 2.01
 188  0.250  0.500  0.561-  19 1.86  54 1.97  34 1.97  53 1.97  33 1.97  52 2.10
 189  0.250  0.625  0.621-  80 1.83  60 1.83  58 2.04  57 2.04  79 2.09  19 2.09
 190  0.000  0.500  0.614-  56 1.81  37 1.94  57 1.94 118 1.94 138 1.94
 191  0.250  0.875  0.383-   3 1.95   4 1.95  63 1.95  64 1.95  61 1.98  62 1.98
 192  0.000  0.750  0.383-  41 1.95  61 1.95 122 1.95 142 1.95  67 1.98
 193  0.000  0.875  0.441-   7 1.95  67 1.95   8 1.95  68 1.95  66 1.98 145 1.98
 194  0.250  0.750  0.441-  45 1.95  46 1.95  65 1.95  66 1.95  64 1.98  71 1.98
 195  0.250  0.875  0.500-  11 1.95  12 1.95  71 1.95  72 1.95  69 1.98  70 1.98
 196  0.000  0.750  0.500-  49 1.95  69 1.95 130 1.95 150 1.95  68 1.98  75 2.00
 197  0.500  0.875  0.557-  95 1.90 155 1.90  73 1.95 154 1.95  96 2.01 156 2.01
 198  0.250  0.750  0.561-  79 1.86  74 1.97  54 1.97  73 1.97  53 1.97  72 2.10
 199  0.250  0.875  0.621-  80 1.83  20 1.83  78 2.04  77 2.04  79 2.09  59 2.09
 200  0.000  0.750  0.614-  76 1.81  77 1.94 158 1.94  57 1.94 138 1.94
 201  0.750  0.125  0.383-  83 1.95  84 1.95 103 1.95 104 1.95  81 1.98  82 1.98
 202  0.500  0.000  0.383-   2 1.95  62 1.95  81 1.95 141 1.95  87 1.98
 203  0.500  0.125  0.441-  87 1.95 107 1.95  88 1.95 108 1.95   5 1.98  86 1.98
 204  0.750  0.000  0.441-  85 1.95  86 1.95 145 1.95 146 1.95  84 1.98  91 1.98
 205  0.750  0.125  0.500-  91 1.95  92 1.95 111 1.95 112 1.95  89 1.98  90 1.98
 206  0.500  0.000  0.500-  10 1.95  70 1.95  89 1.95 149 1.95  88 1.98  95 2.00
 207  1.000  0.125  0.557-  15 1.90  35 1.90  93 1.95  14 1.95  36 2.01  16 2.01
 208  0.750  0.000  0.561- 139 1.86  94 1.97 154 1.97  93 1.97 153 1.97  92 2.10
 209  0.750  0.125  0.621- 120 1.83 100 1.83  98 2.04  97 2.04 119 2.09 139 2.09
 210  0.500  1.000  0.614-  96 1.81 157 1.94  97 1.94  78 1.94  18 1.94
 211  0.750  0.375  0.383- 103 1.95 104 1.95 123 1.95 124 1.95 101 1.98 102 1.98
 212  0.500  0.250  0.383-   2 1.95  22 1.95  81 1.95 101 1.95 107 1.98
 213  0.500  0.375  0.441- 107 1.95 127 1.95 108 1.95 128 1.95  25 1.98 106 1.98
 214  0.750  0.250  0.441-  85 1.95  86 1.95 105 1.95 106 1.95 104 1.98 111 1.98
 215  0.750  0.375  0.500- 111 1.95 112 1.95 131 1.95 132 1.95 109 1.98 110 1.98
 216  0.500  0.250  0.500-  10 1.95  30 1.95  89 1.95 109 1.95 108 1.98 115 2.00
 217  1.000  0.375  0.557-  55 1.90  35 1.90 113 1.95  34 1.95  56 2.01  36 2.01
 218  0.750  0.250  0.561- 119 1.86 114 1.97  94 1.97 113 1.97  93 1.97 112 2.10
 219  0.750  0.375  0.621- 120 1.83 140 1.83 118 2.04 117 2.04 119 2.09  99 2.09
 220  0.500  0.250  0.614- 116 1.81 117 1.94  38 1.94  97 1.94  18 1.94
 221  0.750  0.625  0.383- 123 1.95 124 1.95 143 1.95 144 1.95 121 1.98 122 1.98
 222  0.500  0.500  0.383-  22 1.95  42 1.95 101 1.95 121 1.95 127 1.98
 223  0.500  0.625  0.441- 127 1.95 147 1.95 128 1.95 148 1.95  45 1.98 126 1.98
 224  0.750  0.500  0.441- 105 1.95 106 1.95 125 1.95 126 1.95 124 1.98 131 1.98
 225  0.750  0.625  0.500- 131 1.95 132 1.95 151 1.95 152 1.95 129 1.98 130 1.98
 226  0.500  0.500  0.500-  30 1.95  50 1.95 109 1.95 129 1.95 128 1.98 135 2.00
 227  1.000  0.625  0.557-  55 1.90  75 1.90 133 1.95  54 1.95  76 2.01  56 2.01
 228  0.750  0.500  0.561-  99 1.86 134 1.97 114 1.97 133 1.97 113 1.97 132 2.10
 229  0.750  0.625  0.621- 160 1.83 140 1.83 138 2.04 137 2.04 159 2.09  99 2.09
 230  0.500  0.500  0.614- 136 1.81 117 1.94 137 1.94  38 1.94  58 1.94
 231  0.750  0.875  0.383-  83 1.95  84 1.95 143 1.95 144 1.95 141 1.98 142 1.98
 232  0.500  0.750  0.383-  42 1.95  62 1.95 121 1.95 141 1.95 147 1.98
 233  0.500  0.875  0.441-  87 1.95 147 1.95  88 1.95 148 1.95  65 1.98 146 1.98
 234  0.750  0.750  0.441- 125 1.95 126 1.95 145 1.95 146 1.95 144 1.98 151 1.98
 235  0.750  0.875  0.500-  91 1.95  92 1.95 151 1.95 152 1.95 149 1.98 150 1.98
 236  0.500  0.750  0.500-  50 1.95  70 1.95 129 1.95 149 1.95 148 1.98 155 2.00
 237  1.000  0.875  0.557-  15 1.90  75 1.90 153 1.95  74 1.95  16 2.01  76 2.01
 238  0.750  0.750  0.561- 159 1.86 154 1.97 134 1.97 153 1.97 133 1.97 152 2.10
 239  0.750  0.875  0.621- 160 1.83 100 1.83 158 2.04 157 2.04 159 2.09 139 2.09
 240  0.500  0.750  0.614- 156 1.81 157 1.94  78 1.94 137 1.94  58 1.94
 

IMPORTANT INFORMATION: All symmetrisations will be switched off!
NOSYMM: (Re-)initialisation of all symmetry stuff for point group C_1.


----------------------------------------------------------------------------------------

                                     Primitive cell                                     

  volume of cell :    8565.5702

  direct lattice vectors                    reciprocal lattice vectors
    13.016074892  0.000000000  0.000000000     0.076828077  0.000000000  0.000000000
     0.000000000 11.844370774  0.000000000     0.000000000  0.084428292  0.000000000
     0.000000000  0.000000000 55.560257028     0.000000000  0.000000000  0.017998477

  length of vectors
    13.016074892 11.844370774 55.560257028     0.076828077  0.084428292  0.017998477

  position of ions in fractional coordinates (direct lattice)
     0.097732310  0.125000000  0.382865239
     0.402267690  0.125000000  0.382865239
     0.250000000  0.000000000  0.359969537
     0.250000000  0.000000000  0.405760940
     0.347732310  0.125000000  0.441432619
     0.152267690  0.125000000  0.441432619
     0.000000000  0.000000000  0.418536918
     0.000000000  0.000000000  0.464328321
     0.097732310  0.125000000  0.500000000
     0.402267690  0.125000000  0.500000000
     0.250000000  0.000000000  0.477104298
     0.250000000  0.000000000  0.522895702
     0.349960529  0.125000012  0.558836180
     0.150041709  0.125000020  0.558836278
     0.000000648  0.999999994  0.535943228
     0.000000726  0.000000031  0.581812131
     0.093635235  0.124999951  0.620120279
     0.406365714  0.124999959  0.620120319
     0.250000576  0.499999990  0.594258110
     0.250000236  0.000000085  0.640125470
     0.097732310  0.375000000  0.382865239
     0.402267690  0.375000000  0.382865239
     0.250000000  0.250000000  0.359969537
     0.250000000  0.250000000  0.405760940
     0.347732310  0.375000000  0.441432619
     0.152267690  0.375000000  0.441432619
     0.000000000  0.250000000  0.418536918
     0.000000000  0.250000000  0.464328321
     0.097732310  0.375000000  0.500000000
     0.402267690  0.375000000  0.500000000
     0.250000000  0.250000000  0.477104298
     0.250000000  0.250000000  0.522895702
     0.349960523  0.374999963  0.558836183
     0.150041713  0.374999976  0.558836282
     0.000000659  0.250000019  0.535943221
     0.000000741  0.249999963  0.581812114
     0.093635240  0.375000046  0.620120258
     0.406365665  0.375000065  0.620120295
     0.250000582  0.249999954  0.594258086
     0.250000207  0.249999917  0.640125421
     0.097732310  0.625000000  0.382865239
     0.402267690  0.625000000  0.382865239
     0.250000000  0.500000000  0.359969537
     0.250000000  0.500000000  0.405760940
     0.347732310  0.625000000  0.441432619
     0.152267690  0.625000000  0.441432619
     0.000000000  0.500000000  0.418536918
     0.000000000  0.500000000  0.464328321
     0.097732310  0.625000000  0.500000000
     0.402267690  0.625000000  0.500000000
     0.250000000  0.500000000  0.477104298
     0.250000000  0.500000000  0.522895702
     0.349960529  0.625000012  0.558836180
     0.150041709  0.625000020  0.558836278
     0.000000648  0.499999994  0.535943228
     0.000000726  0.500000031  0.581812131
     0.093635235  0.624999951  0.620120279
     0.406365714  0.624999959  0.620120319
     0.250000576  0.999999990  0.594258110
     0.250000236  0.500000085  0.640125470
     0.097732310  0.875000000  0.382865239
     0.402267690  0.875000000  0.382865239
     0.250000000  0.750000000  0.359969537
     0.250000000  0.750000000  0.405760940
     0.347732310  0.875000000  0.441432619
     0.152267690  0.875000000  0.441432619
     0.000000000  0.750000000  0.418536918
     0.000000000  0.750000000  0.464328321
     0.097732310  0.875000000  0.500000000
     0.402267690  0.875000000  0.500000000
     0.250000000  0.750000000  0.477104298
     0.250000000  0.750000000  0.522895702
     0.349960523  0.874999963  0.558836183
     0.150041713  0.874999976  0.558836282
     0.000000659  0.750000019  0.535943221
     0.000000741  0.749999963  0.581812114
     0.093635240  0.875000046  0.620120258
     0.406365665  0.875000065  0.620120295
     0.250000582  0.749999954  0.594258086
     0.250000207  0.749999917  0.640125421
     0.597732310  0.125000000  0.382865239
     0.902267690  0.125000000  0.382865239
     0.750000000  0.000000000  0.359969537
     0.750000000  0.000000000  0.405760940
     0.847732310  0.125000000  0.441432619
     0.652267690  0.125000000  0.441432619
     0.500000000  0.000000000  0.418536918
     0.500000000  0.000000000  0.464328321
     0.597732310  0.125000000  0.500000000
     0.902267690  0.125000000  0.500000000
     0.750000000  0.000000000  0.477104298
     0.750000000  0.000000000  0.522895702
     0.849960529  0.125000012  0.558836180
     0.650041709  0.125000020  0.558836278
     0.500000648  0.999999994  0.535943228
     0.500000726  0.000000031  0.581812131
     0.593635235  0.124999951  0.620120279
     0.906365714  0.124999959  0.620120319
     0.750000576  0.499999990  0.594258110
     0.750000236  0.000000085  0.640125470
     0.597732310  0.375000000  0.382865239
     0.902267690  0.375000000  0.382865239
     0.750000000  0.250000000  0.359969537
     0.750000000  0.250000000  0.405760940
     0.847732310  0.375000000  0.441432619
     0.652267690  0.375000000  0.441432619
     0.500000000  0.250000000  0.418536918
     0.500000000  0.250000000  0.464328321
     0.597732310  0.375000000  0.500000000
     0.902267690  0.375000000  0.500000000
     0.750000000  0.250000000  0.477104298
     0.750000000  0.250000000  0.522895702
     0.849960523  0.374999963  0.558836183
     0.650041713  0.374999976  0.558836282
     0.500000659  0.250000019  0.535943221
     0.500000741  0.249999963  0.581812114
     0.593635240  0.375000046  0.620120258
     0.906365665  0.375000065  0.620120295
     0.750000582  0.249999954  0.594258086
     0.750000207  0.249999917  0.640125421
     0.597732310  0.625000000  0.382865239
     0.902267690  0.625000000  0.382865239
     0.750000000  0.500000000  0.359969537
     0.750000000  0.500000000  0.405760940
     0.847732310  0.625000000  0.441432619
     0.652267690  0.625000000  0.441432619
     0.500000000  0.500000000  0.418536918
     0.500000000  0.500000000  0.464328321
     0.597732310  0.625000000  0.500000000
     0.902267690  0.625000000  0.500000000
     0.750000000  0.500000000  0.477104298
     0.750000000  0.500000000  0.522895702
     0.849960529  0.625000012  0.558836180
     0.650041709  0.625000020  0.558836278
     0.500000648  0.499999994  0.535943228
     0.500000726  0.500000031  0.581812131
     0.593635235  0.624999951  0.620120279
     0.906365714  0.624999959  0.620120319
     0.750000576  0.999999990  0.594258110
     0.750000236  0.500000085  0.640125470
     0.597732310  0.875000000  0.382865239
     0.902267690  0.875000000  0.382865239
     0.750000000  0.750000000  0.359969537
     0.750000000  0.750000000  0.405760940
     0.847732310  0.875000000  0.441432619
     0.652267690  0.875000000  0.441432619
     0.500000000  0.750000000  0.418536918
     0.500000000  0.750000000  0.464328321
     0.597732310  0.875000000  0.500000000
     0.902267690  0.875000000  0.500000000
     0.750000000  0.750000000  0.477104298
     0.750000000  0.750000000  0.522895702
     0.849960523  0.874999963  0.558836183
     0.650041713  0.874999976  0.558836282
     0.500000659  0.750000019  0.535943221
     0.500000741  0.749999963  0.581812114
     0.593635240  0.875000046  0.620120258
     0.906365665  0.875000065  0.620120295
     0.750000582  0.749999954  0.594258086
     0.750000207  0.749999917  0.640125421
     0.250000000  0.125000000  0.382865239
     0.000000000  0.000000000  0.382865239
     0.000000000  0.125000000  0.441432619
     0.250000000  0.000000000  0.441432619
     0.250000000  0.125000000  0.500000000
     0.000000000  0.000000000  0.500000000
     0.499995050  0.124999964  0.557334061
     0.249996225  0.000000025  0.560700303
     0.250000648  0.125000484  0.620886434
     0.000000508  0.999999990  0.614438734
     0.250000000  0.375000000  0.382865239
     0.000000000  0.250000000  0.382865239
     0.000000000  0.375000000  0.441432619
     0.250000000  0.250000000  0.441432619
     0.250000000  0.375000000  0.500000000
     0.000000000  0.250000000  0.500000000
     0.499995035  0.375000046  0.557334068
     0.249996236  0.250000041  0.560700337
     0.250000660  0.374999548  0.620886518
     0.000000464  0.250000042  0.614438728
     0.250000000  0.625000000  0.382865239
     0.000000000  0.500000000  0.382865239
     0.000000000  0.625000000  0.441432619
     0.250000000  0.500000000  0.441432619
     0.250000000  0.625000000  0.500000000
     0.000000000  0.500000000  0.500000000
     0.499995050  0.624999964  0.557334061
     0.249996225  0.500000025  0.560700303
     0.250000648  0.625000484  0.620886434
     0.000000508  0.499999990  0.614438734
     0.250000000  0.875000000  0.382865239
     0.000000000  0.750000000  0.382865239
     0.000000000  0.875000000  0.441432619
     0.250000000  0.750000000  0.441432619
     0.250000000  0.875000000  0.500000000
     0.000000000  0.750000000  0.500000000
     0.499995035  0.875000046  0.557334068
     0.249996236  0.750000041  0.560700337
     0.250000660  0.874999548  0.620886518
     0.000000464  0.750000042  0.614438728
     0.750000000  0.125000000  0.382865239
     0.500000000  0.000000000  0.382865239
     0.500000000  0.125000000  0.441432619
     0.750000000  0.000000000  0.441432619
     0.750000000  0.125000000  0.500000000
     0.500000000  0.000000000  0.500000000
     0.999995050  0.124999964  0.557334061
     0.749996225  0.000000025  0.560700303
     0.750000648  0.125000484  0.620886434
     0.500000508  0.999999990  0.614438734
     0.750000000  0.375000000  0.382865239
     0.500000000  0.250000000  0.382865239
     0.500000000  0.375000000  0.441432619
     0.750000000  0.250000000  0.441432619
     0.750000000  0.375000000  0.500000000
     0.500000000  0.250000000  0.500000000
     0.999995035  0.375000046  0.557334068
     0.749996236  0.250000041  0.560700337
     0.750000660  0.374999548  0.620886518
     0.500000464  0.250000042  0.614438728
     0.750000000  0.625000000  0.382865239
     0.500000000  0.500000000  0.382865239
     0.500000000  0.625000000  0.441432619
     0.750000000  0.500000000  0.441432619
     0.750000000  0.625000000  0.500000000
     0.500000000  0.500000000  0.500000000
     0.999995050  0.624999964  0.557334061
     0.749996225  0.500000025  0.560700303
     0.750000648  0.625000484  0.620886434
     0.500000508  0.499999990  0.614438734
     0.750000000  0.875000000  0.382865239
     0.500000000  0.750000000  0.382865239
     0.500000000  0.875000000  0.441432619
     0.750000000  0.750000000  0.441432619
     0.750000000  0.875000000  0.500000000
     0.500000000  0.750000000  0.500000000
     0.999995035  0.875000046  0.557334068
     0.749996236  0.750000041  0.560700337
     0.750000660  0.874999548  0.620886518
     0.500000464  0.750000042  0.614438728

  ion indices of the primitive-cell ions
   primitive index   ion index
                 1           1
                 2           2
                 3           3
                 4           4
                 5           5
                 6           6
                 7           7
                 8           8
                 9           9
                10          10
                11          11
                12          12
                13          13
                14          14
                15          15
                16          16
                17          17
                18          18
                19          19
                20          20
                21          21
                22          22
                23          23
                24          24
                25          25
                26          26
                27          27
                28          28
                29          29
                30          30
                31          31
                32          32
                33          33
                34          34
                35          35
                36          36
                37          37
                38          38
                39          39
                40          40
                41          41
                42          42
                43          43
                44          44
                45          45
                46          46
                47          47
                48          48
                49          49
                50          50
                51          51
                52          52
                53          53
                54          54
                55          55
                56          56
                57          57
                58          58
                59          59
                60          60
                61          61
                62          62
                63          63
                64          64
                65          65
                66          66
                67          67
                68          68
                69          69
                70          70
                71          71
                72          72
                73          73
                74          74
                75          75
                76          76
                77          77
                78          78
                79          79
                80          80
                81          81
                82          82
                83          83
                84          84
                85          85
                86          86
                87          87
                88          88
                89          89
                90          90
                91          91
                92          92
                93          93
                94          94
                95          95
                96          96
                97          97
                98          98
                99          99
               100         100
               101         101
               102         102
               103         103
               104         104
               105         105
               106         106
               107         107
               108         108
               109         109
               110         110
               111         111
               112         112
               113         113
               114         114
               115         115
               116         116
               117         117
               118         118
               119         119
               120         120
               121         121
               122         122
               123         123
               124         124
               125         125
               126         126
               127         127
               128         128
               129         129
               130         130
               131         131
               132         132
               133         133
               134         134
               135         135
               136         136
               137         137
               138         138
               139         139
               140         140
               141         141
               142         142
               143         143
               144         144
               145         145
               146         146
               147         147
               148         148
               149         149
               150         150
               151         151
               152         152
               153         153
               154         154
               155         155
               156         156
               157         157
               158         158
               159         159
               160         160
               161         161
               162         162
               163         163
               164         164
               165         165
               166         166
               167         167
               168         168
               169         169
               170         170
               171         171
               172         172
               173         173
               174         174
               175         175
               176         176
               177         177
               178         178
               179         179
               180         180
               181         181
               182         182
               183         183
               184         184
               185         185
               186         186
               187         187
               188         188
               189         189
               190         190
               191         191
               192         192
               193         193
               194         194
               195         195
               196         196
               197         197
               198         198
               199         199
               200         200
               201         201
               202         202
               203         203
               204         204
               205         205
               206         206
               207         207
               208         208
               209         209
               210         210
               211         211
               212         212
               213         213
               214         214
               215         215
               216         216
               217         217
               218         218
               219         219
               220         220
               221         221
               222         222
               223         223
               224         224
               225         225
               226         226
               227         227
               228         228
               229         229
               230         230
               231         231
               232         232
               233         233
               234         234
               235         235
               236         236
               237         237
               238         238
               239         239
               240         240

----------------------------------------------------------------------------------------

 
 
 KPOINTS: pymatgen v2020.8.13 with grid density = 

Automatic generation of k-mesh.
 Grid dimensions read from file:
 generate k-points for:    2    2    1

 Generating k-lattice:

  Cartesian coordinates                     Fractional coordinates (reciprocal lattice)
     0.038414038  0.000000000  0.000000000     0.500000000  0.000000000  0.000000000
     0.000000000  0.042214146  0.000000000     0.000000000  0.500000000  0.000000000
     0.000000000  0.000000000  0.017998477     0.000000000  0.000000000  1.000000000

  Length of vectors
     0.038414038  0.042214146  0.017998477

  Shift w.r.t. Gamma in fractional coordinates (k-lattice)
     0.000000000  0.000000000  0.000000000

 
 Subroutine IBZKPT returns following result:
 ===========================================
 
 Found      4 irreducible k-points:
 
 Following reciprocal coordinates:
            Coordinates               Weight
  0.000000  0.000000  0.000000      1.000000
  0.500000  0.000000  0.000000      1.000000
  0.000000  0.500000  0.000000      1.000000
  0.500000  0.500000  0.000000      1.000000
 
 Following cartesian coordinates:
            Coordinates               Weight
  0.000000  0.000000  0.000000      1.000000
  0.038414  0.000000  0.000000      1.000000
  0.000000  0.042214  0.000000      1.000000
  0.038414  0.042214  0.000000      1.000000
 


--------------------------------------------------------------------------------------------------------




 Dimension of arrays:
   k-points           NKPTS =      4   k-points in BZ     NKDIM =      4   number of bands    NBANDS=   1152
   number of dos      NEDOS =    301   number of ions     NIONS =    240
   non local maximal  LDIM  =      6   non local SUM 2l+1 LMDIM =     18
   total plane-waves  NPLWV = ******
   max r-space proj   IRMAX =   1672   max aug-charges    IRDMAX=   7509
   dimension x,y,z NGX =    72 NGY =   70 NGZ =  320
   dimension x,y,z NGXF=   144 NGYF=  140 NGZF=  640
   support grid    NGXF=   144 NGYF=  140 NGZF=  640
   ions per type =             160  80
   NGX,Y,Z   is equivalent  to a cutoff of   9.20,  9.83,  9.57 a.u.
   NGXF,Y,Z  is equivalent  to a cutoff of  18.39, 19.65, 19.15 a.u.

 SYSTEM =  TiO2-rutile                             
 POSCAR =   O Ti                                   

 Startparameter for this run:
   NWRITE =      2    write-flag & timer
   PREC   = normal    normal or accurate (medium, high low for compatibility)
   ISTART =      0    job   : 0-new  1-cont  2-samecut
   ICHARG =      2    charge: 1-file 2-atom 10-const
   ISPIN  =      1    spin polarized calculation?
   LNONCOLLINEAR =      F non collinear calculations
   LSORBIT =      F    spin-orbit coupling
   INIWAV =      1    electr: 0-lowe 1-rand  2-diag
   LASPH  =      T    aspherical Exc in radial PAW
   METAGGA=      F    non-selfconsistent MetaGGA calc.

 Electronic Relaxation 1
   ENCUT  =  500.0 eV  36.75 Ry    6.06 a.u.  23.73 21.60101.30*2*pi/ulx,y,z
   ENINI  =  500.0     initial cutoff
   ENAUG  =  605.4 eV  augmentation charge cutoff
   NELM   =    300;   NELMIN=  2; NELMDL= -5     # of ELM steps 
   EDIFF  = 0.1E-04   stopping-criterion for ELM
   LREAL  =      T    real-space projection
   NLSPLINE    = F    spline interpolate recip. space projectors
   LCOMPAT=      F    compatible to vasp.4.4
   GGA_COMPAT  = T    GGA compatible to vasp.4.4-vasp.4.6
   LMAXPAW     = -100 max onsite density
   LMAXMIX     =    2 max onsite mixed and CHGCAR
   VOSKOWN=      0    Vosko Wilk Nusair interpolation
   ROPT   =   -0.00050  -0.00050
 Ionic relaxation
   EDIFFG = -.1E-01   stopping-criterion for IOM
   NSW    =      0    number of steps for IOM
   NBLOCK =      1;   KBLOCK =      1    inner block; outer block 
   IBRION =     -1    ionic relax: 0-MD 1-quasi-New 2-CG
   NFREE  =      0    steps in history (QN), initial steepest desc. (CG)
   ISIF   =      2    stress and relaxation
   IWAVPR =     10    prediction:  0-non 1-charg 2-wave 3-comb
   ISYM   =      0    0-nonsym 1-usesym 2-fastsym
   LCORR  =      T    Harris-Foulkes like correction to forces

   POTIM  = 0.5000    time-step for ionic-motion
   TEIN   =    0.0    initial temperature
   TEBEG  =    0.0;   TEEND  =   0.0 temperature during run
   SMASS  =  -3.00    Nose mass-parameter (am)
   estimated Nose-frequenzy (Omega)   =  0.10E-29 period in steps = 0.13E+47 mass=  -0.387E-26a.u.
   SCALEE = 1.0000    scale energy and forces
   NPACO  =    256;   APACO  = 16.0  distance and # of slots for P.C.
   PSTRESS=    0.0 pullay stress

  Mass of Ions in am
   POMASS =  16.00 47.88
  Ionic Valenz
   ZVAL   =   6.00 12.00
  Atomic Wigner-Seitz radii
   RWIGS  =  -1.00 -1.00
  virtual crystal weights 
   VCA    =   1.00  1.00
   NELECT =    1920.0000    total number of electrons
   NUPDOWN=      -1.0000    fix difference up-down

 DOS related values:
   EMIN   =  10.00;   EMAX   =-10.00  energy-range for DOS
   EFERMI =   0.00
   ISMEAR =     0;   SIGMA  =   0.05  broadening in eV -4-tet -1-fermi 0-gaus

 Electronic relaxation 2 (details)
   IALGO  =     68    algorithm
   LDIAG  =      T    sub-space diagonalisation (order eigenvalues)
   LSUBROT=      F    optimize rotation matrix (better conditioning)
   TURBO    =      0    0=normal 1=particle mesh
   IRESTART =      0    0=no restart 2=restart with 2 vectors
   NREBOOT  =      0    no. of reboots
   NMIN     =      0    reboot dimension
   EREF     =   0.00    reference energy to select bands
   IMIX   =      4    mixing-type and parameters
     AMIX     =   0.40;   BMIX     =  1.00
     AMIX_MAG =   1.60;   BMIX_MAG =  1.00
     AMIN     =   0.10
     WC   =   100.;   INIMIX=   1;  MIXPRE=   1;  MAXMIX= -45

 Intra band minimization:
   WEIMIN = 0.0000     energy-eigenvalue tresh-hold
   EBREAK =  0.22E-08  absolut break condition
   DEPER  =   0.30     relativ break condition  

   TIME   =   0.40     timestep for ELM

  volume/ion in A,a.u.               =      35.69       240.85
  Fermi-wavevector in a.u.,A,eV,Ry     =   0.994466  1.879268 13.455646  0.988962
  Thomas-Fermi vector in A             =   2.126419
 
 Write flags
   LWAVE        =      F    write WAVECAR
   LDOWNSAMPLE  =      F    k-point downsampling of WAVECAR
   LCHARG       =      F    write CHGCAR
   LVTOT        =      F    write LOCPOT, total local potential
   LVHAR        =      F    write LOCPOT, Hartree potential only
   LELF         =      F    write electronic localiz. function (ELF)
   LORBIT       =     11    0 simple, 1 ext, 2 COOP (PROOUT), +10 PAW based schemes


 Dipole corrections
   LMONO  =      F    monopole corrections only (constant potential shift)
   LDIPOL =      F    correct potential (dipole corrections)
   IDIPOL =      0    1-x, 2-y, 3-z, 4-all directions 
   EPSILON=  1.0000000 bulk dielectric constant

 Exchange correlation treatment:
   GGA     =    PE    GGA type
   LEXCH   =     8    internal setting for exchange type
   VOSKOWN=      0    Vosko Wilk Nusair interpolation
   LHFCALC =     F    Hartree Fock is set to
   LHFONE  =     F    Hartree Fock one center treatment
   AEXX    =    0.0000 exact exchange contribution

 Linear response parameters
   LEPSILON=     F    determine dielectric tensor
   LRPA    =     F    only Hartree local field effects (RPA)
   LNABLA  =     F    use nabla operator in PAW spheres
   LVEL    =     F    velocity operator in full k-point grid
   LINTERFAST=   F  fast interpolation
   KINTER  =     0    interpolate to denser k-point grid
   CSHIFT  =0.1000    complex shift for real part using Kramers Kronig
   OMEGAMAX=  -1.0    maximum frequency
   DEG_THRESHOLD= 0.2000000E-02 threshold for treating states as degnerate
   RTIME   =   -0.100 relaxation time in fs
  (WPLASMAI=    0.000 imaginary part of plasma frequency in eV, 0.658/RTIME)
   DFIELD  = 0.0000000 0.0000000 0.0000000 field for delta impulse in time
 
 Orbital magnetization related:
   ORBITALMAG=     F  switch on orbital magnetization
   LCHIMAG   =     F  perturbation theory with respect to B field
   DQ        =  0.001000  dq finite difference perturbation B field
   LLRAUG    =     F  two centre corrections for induced B field

 -----------------------------------------------------------------------------
|                                                                             |
|           W    W    AA    RRRRR   N    N  II  N    N   GGGG   !!!           |
|           W    W   A  A   R    R  NN   N  II  NN   N  G    G  !!!           |
|           W    W  A    A  R    R  N N  N  II  N N  N  G       !!!           |
|           W WW W  AAAAAA  RRRRR   N  N N  II  N  N N  G  GGG   !            |
|           WW  WW  A    A  R   R   N   NN  II  N   NN  G    G                |
|           W    W  A    A  R    R  N    N  II  N    N   GGGG   !!!           |
|                                                                             |
|     One of the lattice vectors is very long (>50 A), but AMIN is rather     |
|     large. This can spoil convergence since charge sloshing might occur     |
|     along the long lattice vector. If problems with convergence are         |
|     observed, try to decrease AMIN to a smaller value (e.g. 0.01).          |
|     Note: This warning only applies if the self-consistency cycle is        |
|     used.                                                                   |
|                                                                             |
 -----------------------------------------------------------------------------



--------------------------------------------------------------------------------------------------------


 Static calculation
 charge density and potential will be updated during run
 non-spin polarized calculation
 RMM-DIIS sequential band-by-band and
  variant of blocked Davidson during initial phase
 perform sub-space diagonalisation
    before iterative eigenvector-optimisation
 modified Broyden-mixing scheme, WC =      100.0
 initial mixing is a Kerker type mixing with AMIX =  0.4000 and BMIX =      1.0000
 Hartree-type preconditioning will be used
 using additional bands          192
 real space projection scheme for non local part
 use partial core corrections
 calculate Harris-corrections to forces 
   (improved forces if not selfconsistent)
 use gradient corrections 
 use of overlap-Matrix (Vanderbilt PP)
 Gauss-broadening in eV      SIGMA  =   0.05


--------------------------------------------------------------------------------------------------------


  energy-cutoff  :      500.00
  volume of cell :     8565.57
      direct lattice vectors                 reciprocal lattice vectors
    13.016074892  0.000000000  0.000000000     0.076828077  0.000000000  0.000000000
     0.000000000 11.844370774  0.000000000     0.000000000  0.084428292  0.000000000
     0.000000000  0.000000000 55.560257028     0.000000000  0.000000000  0.017998477

  length of vectors
    13.016074892 11.844370774 55.560257028     0.076828077  0.084428292  0.017998477


 
 k-points in units of 2pi/SCALE and weight: pymatgen v2020.8.13 with grid density = 
   0.00000000  0.00000000  0.00000000       0.250
   0.03841404  0.00000000  0.00000000       0.250
   0.00000000  0.04221415  0.00000000       0.250
   0.03841404  0.04221415  0.00000000       0.250
 
 k-points in reciprocal lattice and weights: pymatgen v2020.8.13 with grid density = 
   0.00000000  0.00000000  0.00000000       0.250
   0.50000000  0.00000000  0.00000000       0.250
   0.00000000  0.50000000  0.00000000       0.250
   0.50000000  0.50000000  0.00000000       0.250
 
 position of ions in fractional coordinates (direct lattice) 
   0.09773231  0.12500000  0.38286524
   0.40226769  0.12500000  0.38286524
   0.25000000  0.00000000  0.35996954
   0.25000000  0.00000000  0.40576094
   0.34773231  0.12500000  0.44143262
   0.15226769  0.12500000  0.44143262
   0.00000000  0.00000000  0.41853692
   0.00000000  0.00000000  0.46432832
   0.09773231  0.12500000  0.50000000
   0.40226769  0.12500000  0.50000000
   0.25000000  0.00000000  0.47710430
   0.25000000  0.00000000  0.52289570
   0.34996053  0.12500001  0.55883618
   0.15004171  0.12500002  0.55883628
   0.00000065  0.99999999  0.53594323
   0.00000073  0.00000003  0.58181213
   0.09363523  0.12499995  0.62012028
   0.40636571  0.12499996  0.62012032
   0.25000058  0.49999999  0.59425811
   0.25000024  0.00000008  0.64012547
   0.09773231  0.37500000  0.38286524
   0.40226769  0.37500000  0.38286524
   0.25000000  0.25000000  0.35996954
   0.25000000  0.25000000  0.40576094
   0.34773231  0.37500000  0.44143262
   0.15226769  0.37500000  0.44143262
   0.00000000  0.25000000  0.41853692
   0.00000000  0.25000000  0.46432832
   0.09773231  0.37500000  0.50000000
   0.40226769  0.37500000  0.50000000
   0.25000000  0.25000000  0.47710430
   0.25000000  0.25000000  0.52289570
   0.34996052  0.37499996  0.55883618
   0.15004171  0.37499998  0.55883628
   0.00000066  0.25000002  0.53594322
   0.00000074  0.24999996  0.58181211
   0.09363524  0.37500005  0.62012026
   0.40636566  0.37500006  0.62012030
   0.25000058  0.24999995  0.59425809
   0.25000021  0.24999992  0.64012542
   0.09773231  0.62500000  0.38286524
   0.40226769  0.62500000  0.38286524
   0.25000000  0.50000000  0.35996954
   0.25000000  0.50000000  0.40576094
   0.34773231  0.62500000  0.44143262
   0.15226769  0.62500000  0.44143262
   0.00000000  0.50000000  0.41853692
   0.00000000  0.50000000  0.46432832
   0.09773231  0.62500000  0.50000000
   0.40226769  0.62500000  0.50000000
   0.25000000  0.50000000  0.47710430
   0.25000000  0.50000000  0.52289570
   0.34996053  0.62500001  0.55883618
   0.15004171  0.62500002  0.55883628
   0.00000065  0.49999999  0.53594323
   0.00000073  0.50000003  0.58181213
   0.09363523  0.62499995  0.62012028
   0.40636571  0.62499996  0.62012032
   0.25000058  0.99999999  0.59425811
   0.25000024  0.50000008  0.64012547
   0.09773231  0.87500000  0.38286524
   0.40226769  0.87500000  0.38286524
   0.25000000  0.75000000  0.35996954
   0.25000000  0.75000000  0.40576094
   0.34773231  0.87500000  0.44143262
   0.15226769  0.87500000  0.44143262
   0.00000000  0.75000000  0.41853692
   0.00000000  0.75000000  0.46432832
   0.09773231  0.87500000  0.50000000
   0.40226769  0.87500000  0.50000000
   0.25000000  0.75000000  0.47710430
   0.25000000  0.75000000  0.52289570
   0.34996052  0.87499996  0.55883618
   0.15004171  0.87499998  0.55883628
   0.00000066  0.75000002  0.53594322
   0.00000074  0.74999996  0.58181211
   0.09363524  0.87500005  0.62012026
   0.40636566  0.87500006  0.62012030
   0.25000058  0.74999995  0.59425809
   0.25000021  0.74999992  0.64012542
   0.59773231  0.12500000  0.38286524
   0.90226769  0.12500000  0.38286524
   0.75000000  0.00000000  0.35996954
   0.75000000  0.00000000  0.40576094
   0.84773231  0.12500000  0.44143262
   0.65226769  0.12500000  0.44143262
   0.50000000  0.00000000  0.41853692
   0.50000000  0.00000000  0.46432832
   0.59773231  0.12500000  0.50000000
   0.90226769  0.12500000  0.50000000
   0.75000000  0.00000000  0.47710430
   0.75000000  0.00000000  0.52289570
   0.84996053  0.12500001  0.55883618
   0.65004171  0.12500002  0.55883628
   0.50000065  0.99999999  0.53594323
   0.50000073  0.00000003  0.58181213
   0.59363523  0.12499995  0.62012028
   0.90636571  0.12499996  0.62012032
   0.75000058  0.49999999  0.59425811
   0.75000024  0.00000008  0.64012547
   0.59773231  0.37500000  0.38286524
   0.90226769  0.37500000  0.38286524
   0.75000000  0.25000000  0.35996954
   0.75000000  0.25000000  0.40576094
   0.84773231  0.37500000  0.44143262
   0.65226769  0.37500000  0.44143262
   0.50000000  0.25000000  0.41853692
   0.50000000  0.25000000  0.46432832
   0.59773231  0.37500000  0.50000000
   0.90226769  0.37500000  0.50000000
   0.75000000  0.25000000  0.47710430
   0.75000000  0.25000000  0.52289570
   0.84996052  0.37499996  0.55883618
   0.65004171  0.37499998  0.55883628
   0.50000066  0.25000002  0.53594322
   0.50000074  0.24999996  0.58181211
   0.59363524  0.37500005  0.62012026
   0.90636566  0.37500006  0.62012030
   0.75000058  0.24999995  0.59425809
   0.75000021  0.24999992  0.64012542
   0.59773231  0.62500000  0.38286524
   0.90226769  0.62500000  0.38286524
   0.75000000  0.50000000  0.35996954
   0.75000000  0.50000000  0.40576094
   0.84773231  0.62500000  0.44143262
   0.65226769  0.62500000  0.44143262
   0.50000000  0.50000000  0.41853692
   0.50000000  0.50000000  0.46432832
   0.59773231  0.62500000  0.50000000
   0.90226769  0.62500000  0.50000000
   0.75000000  0.50000000  0.47710430
   0.75000000  0.50000000  0.52289570
   0.84996053  0.62500001  0.55883618
   0.65004171  0.62500002  0.55883628
   0.50000065  0.49999999  0.53594323
   0.50000073  0.50000003  0.58181213
   0.59363523  0.62499995  0.62012028
   0.90636571  0.62499996  0.62012032
   0.75000058  0.99999999  0.59425811
   0.75000024  0.50000008  0.64012547
   0.59773231  0.87500000  0.38286524
   0.90226769  0.87500000  0.38286524
   0.75000000  0.75000000  0.35996954
   0.75000000  0.75000000  0.40576094
   0.84773231  0.87500000  0.44143262
   0.65226769  0.87500000  0.44143262
   0.50000000  0.75000000  0.41853692
   0.50000000  0.75000000  0.46432832
   0.59773231  0.87500000  0.50000000
   0.90226769  0.87500000  0.50000000
   0.75000000  0.75000000  0.47710430
   0.75000000  0.75000000  0.52289570
   0.84996052  0.87499996  0.55883618
   0.65004171  0.87499998  0.55883628
   0.50000066  0.75000002  0.53594322
   0.50000074  0.74999996  0.58181211
   0.59363524  0.87500005  0.62012026
   0.90636566  0.87500006  0.62012030
   0.75000058  0.74999995  0.59425809
   0.75000021  0.74999992  0.64012542
   0.25000000  0.12500000  0.38286524
   0.00000000  0.00000000  0.38286524
   0.00000000  0.12500000  0.44143262
   0.25000000  0.00000000  0.44143262
   0.25000000  0.12500000  0.50000000
   0.00000000  0.00000000  0.50000000
   0.49999505  0.12499996  0.55733406
   0.24999623  0.00000002  0.56070030
   0.25000065  0.12500048  0.62088643
   0.00000051  0.99999999  0.61443873
   0.25000000  0.37500000  0.38286524
   0.00000000  0.25000000  0.38286524
   0.00000000  0.37500000  0.44143262
   0.25000000  0.25000000  0.44143262
   0.25000000  0.37500000  0.50000000
   0.00000000  0.25000000  0.50000000
   0.49999504  0.37500005  0.55733407
   0.24999624  0.25000004  0.56070034
   0.25000066  0.37499955  0.62088652
   0.00000046  0.25000004  0.61443873
   0.25000000  0.62500000  0.38286524
   0.00000000  0.50000000  0.38286524
   0.00000000  0.62500000  0.44143262
   0.25000000  0.50000000  0.44143262
   0.25000000  0.62500000  0.50000000
   0.00000000  0.50000000  0.50000000
   0.49999505  0.62499996  0.55733406
   0.24999623  0.50000002  0.56070030
   0.25000065  0.62500048  0.62088643
   0.00000051  0.49999999  0.61443873
   0.25000000  0.87500000  0.38286524
   0.00000000  0.75000000  0.38286524
   0.00000000  0.87500000  0.44143262
   0.25000000  0.75000000  0.44143262
   0.25000000  0.87500000  0.50000000
   0.00000000  0.75000000  0.50000000
   0.49999504  0.87500005  0.55733407
   0.24999624  0.75000004  0.56070034
   0.25000066  0.87499955  0.62088652
   0.00000046  0.75000004  0.61443873
   0.75000000  0.12500000  0.38286524
   0.50000000  0.00000000  0.38286524
   0.50000000  0.12500000  0.44143262
   0.75000000  0.00000000  0.44143262
   0.75000000  0.12500000  0.50000000
   0.50000000  0.00000000  0.50000000
   0.99999505  0.12499996  0.55733406
   0.74999623  0.00000002  0.56070030
   0.75000065  0.12500048  0.62088643
   0.50000051  0.99999999  0.61443873
   0.75000000  0.37500000  0.38286524
   0.50000000  0.25000000  0.38286524
   0.50000000  0.37500000  0.44143262
   0.75000000  0.25000000  0.44143262
   0.75000000  0.37500000  0.50000000
   0.50000000  0.25000000  0.50000000
   0.99999504  0.37500005  0.55733407
   0.74999624  0.25000004  0.56070034
   0.75000066  0.37499955  0.62088652
   0.50000046  0.25000004  0.61443873
   0.75000000  0.62500000  0.38286524
   0.50000000  0.50000000  0.38286524
   0.50000000  0.62500000  0.44143262
   0.75000000  0.50000000  0.44143262
   0.75000000  0.62500000  0.50000000
   0.50000000  0.50000000  0.50000000
   0.99999505  0.62499996  0.55733406
   0.74999623  0.50000002  0.56070030
   0.75000065  0.62500048  0.62088643
   0.50000051  0.49999999  0.61443873
   0.75000000  0.87500000  0.38286524
   0.50000000  0.75000000  0.38286524
   0.50000000  0.87500000  0.44143262
   0.75000000  0.75000000  0.44143262
   0.75000000  0.87500000  0.50000000
   0.50000000  0.75000000  0.50000000
   0.99999504  0.87500005  0.55733407
   0.74999624  0.75000004  0.56070034
   0.75000066  0.87499955  0.62088652
   0.50000046  0.75000004  0.61443873
 
 position of ions in cartesian coordinates  (Angst):
   1.27209107  1.48054635 21.27209107
   5.23594638  1.48054635 21.27209107
   3.25401872  0.00000000 20.00000000
   3.25401872  0.00000000 22.54418214
   4.52610979  1.48054635 24.52610979
   1.98192765  1.48054635 24.52610979
   0.00000000  0.00000000 23.25401872
   0.00000000  0.00000000 25.79820086
   1.27209107  1.48054635 27.78012851
   5.23594638  1.48054635 27.78012851
   3.25401872  0.00000000 26.50803745
   3.25401872  0.00000000 29.05221958
   4.55511246  1.48054649 31.04908182
   1.95295412  1.48054659 31.04908725
   0.00000843 11.84437071 29.77714353
   0.00000945  0.00000037 32.32563154
   1.21876323  1.48054576 34.45404209
   5.28928656  1.48054586 34.45404431
   3.25402622  5.92218527 33.01713334
   3.25402179  0.00000100 35.56553563
   1.27209107  4.44163904 21.27209107
   5.23594638  4.44163904 21.27209107
   3.25401872  2.96109269 20.00000000
   3.25401872  2.96109269 22.54418214
   4.52610979  4.44163904 24.52610979
   1.98192765  4.44163904 24.52610979
   0.00000000  2.96109269 23.25401872
   0.00000000  2.96109269 25.79820086
   1.27209107  4.44163904 27.78012851
   5.23594638  4.44163904 27.78012851
   3.25401872  2.96109269 26.50803745
   3.25401872  2.96109269 29.05221958
   4.55511238  4.44163860 31.04908199
   1.95295417  4.44163876 31.04908745
   0.00000858  2.96109292 29.77714312
   0.00000965  2.96109226 32.32563059
   1.21876330  4.44163958 34.45404091
   5.28928592  4.44163981 34.45404299
   3.25402629  2.96109215 33.01713197
   3.25402141  2.96109171 35.56553291
   1.27209107  7.40273173 21.27209107
   5.23594638  7.40273173 21.27209107
   3.25401872  5.92218539 20.00000000
   3.25401872  5.92218539 22.54418214
   4.52610979  7.40273173 24.52610979
   1.98192765  7.40273173 24.52610979
   0.00000000  5.92218539 23.25401872
   0.00000000  5.92218539 25.79820086
   1.27209107  7.40273173 27.78012851
   5.23594638  7.40273173 27.78012851
   3.25401872  5.92218539 26.50803745
   3.25401872  5.92218539 29.05221958
   4.55511246  7.40273188 31.04908182
   1.95295412  7.40273197 31.04908725
   0.00000843  5.92218532 29.77714353
   0.00000945  5.92218575 32.32563154
   1.21876323  7.40273115 34.45404209
   5.28928656  7.40273125 34.45404431
   3.25402622 11.84437066 33.01713334
   3.25402179  5.92218639 35.56553563
   1.27209107 10.36382443 21.27209107
   5.23594638 10.36382443 21.27209107
   3.25401872  8.88327808 20.00000000
   3.25401872  8.88327808 22.54418214
   4.52610979 10.36382443 24.52610979
   1.98192765 10.36382443 24.52610979
   0.00000000  8.88327808 23.25401872
   0.00000000  8.88327808 25.79820086
   1.27209107 10.36382443 27.78012851
   5.23594638 10.36382443 27.78012851
   3.25401872  8.88327808 26.50803745
   3.25401872  8.88327808 29.05221958
   4.55511238 10.36382399 31.04908199
   1.95295417 10.36382415 31.04908745
   0.00000858  8.88327830 29.77714312
   0.00000965  8.88327765 32.32563059
   1.21876330 10.36382497 34.45404091
   5.28928592 10.36382520 34.45404299
   3.25402629  8.88327754 33.01713197
   3.25402141  8.88327710 35.56553291
   7.78012851  1.48054635 21.27209107
  11.74398382  1.48054635 21.27209107
   9.76205617  0.00000000 20.00000000
   9.76205617  0.00000000 22.54418214
  11.03414724  1.48054635 24.52610979
   8.48996510  1.48054635 24.52610979
   6.50803745  0.00000000 23.25401872
   6.50803745  0.00000000 25.79820086
   7.78012851  1.48054635 27.78012851
  11.74398382  1.48054635 27.78012851
   9.76205617  0.00000000 26.50803745
   9.76205617  0.00000000 29.05221958
  11.06314990  1.48054649 31.04908182
   8.46099156  1.48054659 31.04908725
   6.50804588 11.84437071 29.77714353
   6.50804690  0.00000037 32.32563154
   7.72680068  1.48054576 34.45404209
  11.79732401  1.48054586 34.45404431
   9.76206366  5.92218527 33.01713334
   9.76205924  0.00000100 35.56553563
   7.78012851  4.44163904 21.27209107
  11.74398382  4.44163904 21.27209107
   9.76205617  2.96109269 20.00000000
   9.76205617  2.96109269 22.54418214
  11.03414724  4.44163904 24.52610979
   8.48996510  4.44163904 24.52610979
   6.50803745  2.96109269 23.25401872
   6.50803745  2.96109269 25.79820086
   7.78012851  4.44163904 27.78012851
  11.74398382  4.44163904 27.78012851
   9.76205617  2.96109269 26.50803745
   9.76205617  2.96109269 29.05221958
  11.06314982  4.44163860 31.04908199
   8.46099162  4.44163876 31.04908745
   6.50804603  2.96109292 29.77714312
   6.50804709  2.96109226 32.32563059
   7.72680074  4.44163958 34.45404091
  11.79732337  4.44163981 34.45404299
   9.76206374  2.96109215 33.01713197
   9.76205886  2.96109171 35.56553291
   7.78012851  7.40273173 21.27209107
  11.74398382  7.40273173 21.27209107
   9.76205617  5.92218539 20.00000000
   9.76205617  5.92218539 22.54418214
  11.03414724  7.40273173 24.52610979
   8.48996510  7.40273173 24.52610979
   6.50803745  5.92218539 23.25401872
   6.50803745  5.92218539 25.79820086
   7.78012851  7.40273173 27.78012851
  11.74398382  7.40273173 27.78012851
   9.76205617  5.92218539 26.50803745
   9.76205617  5.92218539 29.05221958
  11.06314990  7.40273188 31.04908182
   8.46099156  7.40273197 31.04908725
   6.50804588  5.92218532 29.77714353
   6.50804690  5.92218575 32.32563154
   7.72680068  7.40273115 34.45404209
  11.79732401  7.40273125 34.45404431
   9.76206366 11.84437066 33.01713334
   9.76205924  5.92218639 35.56553563
   7.78012851 10.36382443 21.27209107
  11.74398382 10.36382443 21.27209107
   9.76205617  8.88327808 20.00000000
   9.76205617  8.88327808 22.54418214
  11.03414724 10.36382443 24.52610979
   8.48996510 10.36382443 24.52610979
   6.50803745  8.88327808 23.25401872
   6.50803745  8.88327808 25.79820086
   7.78012851 10.36382443 27.78012851
  11.74398382 10.36382443 27.78012851
   9.76205617  8.88327808 26.50803745
   9.76205617  8.88327808 29.05221958
  11.06314982 10.36382399 31.04908199
   8.46099162 10.36382415 31.04908745
   6.50804603  8.88327830 29.77714312
   6.50804709  8.88327765 32.32563059
   7.72680074 10.36382497 34.45404091
  11.79732337 10.36382520 34.45404299
   9.76206374  8.88327754 33.01713197
   9.76205886  8.88327710 35.56553291
   3.25401872  1.48054635 21.27209107
   0.00000000  0.00000000 21.27209107
   0.00000000  1.48054635 24.52610979
   3.25401872  0.00000000 24.52610979
   3.25401872  1.48054635 27.78012851
   0.00000000  0.00000000 27.78012851
   6.50797302  1.48054592 30.96562366
   3.25396959  0.00000029 31.15265292
   3.25402716  1.48055208 34.49660987
   0.00000661 11.84437066 34.13837401
   3.25401872  4.44163904 21.27209107
   0.00000000  2.96109269 21.27209107
   0.00000000  4.44163904 24.52610979
   3.25401872  2.96109269 24.52610979
   3.25401872  4.44163904 27.78012851
   0.00000000  2.96109269 27.78012851
   6.50797282  4.44163959 30.96562409
   3.25396973  2.96109318 31.15265482
   3.25402731  4.44163369 34.49661455
   0.00000603  2.96109319 34.13837368
   3.25401872  7.40273173 21.27209107
   0.00000000  5.92218539 21.27209107
   0.00000000  7.40273173 24.52610979
   3.25401872  5.92218539 24.52610979
   3.25401872  7.40273173 27.78012851
   0.00000000  5.92218539 27.78012851
   6.50797302  7.40273130 30.96562366
   3.25396959  5.92218568 31.15265292
   3.25402716  7.40273746 34.49660987
   0.00000661  5.92218527 34.13837401
   3.25401872 10.36382443 21.27209107
   0.00000000  8.88327808 21.27209107
   0.00000000 10.36382443 24.52610979
   3.25401872  8.88327808 24.52610979
   3.25401872 10.36382443 27.78012851
   0.00000000  8.88327808 27.78012851
   6.50797282 10.36382497 30.96562409
   3.25396973  8.88327856 31.15265482
   3.25402731 10.36381907 34.49661455
   0.00000603  8.88327857 34.13837368
   9.76205617  1.48054635 21.27209107
   6.50803745  0.00000000 21.27209107
   6.50803745  1.48054635 24.52610979
   9.76205617  0.00000000 24.52610979
   9.76205617  1.48054635 27.78012851
   6.50803745  0.00000000 27.78012851
  13.01601046  1.48054592 30.96562366
   9.76200703  0.00000029 31.15265292
   9.76206461  1.48055208 34.49660987
   6.50804406 11.84437066 34.13837401
   9.76205617  4.44163904 21.27209107
   6.50803745  2.96109269 21.27209107
   6.50803745  4.44163904 24.52610979
   9.76205617  2.96109269 24.52610979
   9.76205617  4.44163904 27.78012851
   6.50803745  2.96109269 27.78012851
  13.01601027  4.44163959 30.96562409
   9.76200717  2.96109318 31.15265482
   9.76206476  4.44163369 34.49661455
   6.50804348  2.96109319 34.13837368
   9.76205617  7.40273173 21.27209107
   6.50803745  5.92218539 21.27209107
   6.50803745  7.40273173 24.52610979
   9.76205617  5.92218539 24.52610979
   9.76205617  7.40273173 27.78012851
   6.50803745  5.92218539 27.78012851
  13.01601046  7.40273130 30.96562366
   9.76200703  5.92218568 31.15265292
   9.76206461  7.40273746 34.49660987
   6.50804406  5.92218527 34.13837401
   9.76205617 10.36382443 21.27209107
   6.50803745  8.88327808 21.27209107
   6.50803745 10.36382443 24.52610979
   9.76205617  8.88327808 24.52610979
   9.76205617 10.36382443 27.78012851
   6.50803745  8.88327808 27.78012851
  13.01601027 10.36382497 30.96562409
   9.76200717  8.88327856 31.15265482
   9.76206476 10.36381907 34.49661455
   6.50804348  8.88327857 34.13837368
 


--------------------------------------------------------------------------------------------------------


 k-point   1 :   0.0000 0.0000 0.0000  plane waves:  217439
 k-point   2 :   0.5000 0.0000 0.0000  plane waves:  217480
 k-point   3 :   0.0000 0.5000 0.0000  plane waves:  217468
 k-point   4 :   0.5000 0.5000 0.0000  plane waves:  217388

 maximum and minimum number of plane-waves per node :     10938    10818

 maximum number of plane-waves:    217480
 maximum index in each direction: 
   IXMAX=   23   IYMAX=   21   IZMAX=  101
   IXMIN=  -24   IYMIN=  -22   IZMIN= -101


 real space projection operators:
  total allocation   :      25386.69 KBytes
  max/ min on nodes  :       1772.84        627.34


 parallel 3D FFT for wavefunctions:
    minimum data exchange during FFTs selected (reduces bandwidth)
 parallel 3D FFT for charge:
    minimum data exchange during FFTs selected (reduces bandwidth)


 total amount of memory used by VASP MPI-rank0   196221. kBytes
=======================================================================

   base      :      30000. kBytes
   nonlr-proj:       8882. kBytes
   fftplans  :       8143. kBytes
   grid      :      13646. kBytes
   one-center:        186. kBytes
   wavefun   :     135364. kBytes
 
     INWAV:  cpu time    0.0000: real time    0.0000
 Broyden mixing: mesh for mixing (old mesh)
   NGX = 47   NGY = 43   NGZ =203
  (NGX  =144   NGY  =140   NGZ  =640)
  gives a total of 410263 points

 initial charge density was supplied:
 charge density of overlapping atoms calculated
 number of electron    1920.0000000 magnetization 
 keeping initial charge density in first step


--------------------------------------------------------------------------------------------------------


 Maximum index for non-local projection operator          173
 Maximum index for augmentation-charges          466 (set IRDMAX)


--------------------------------------------------------------------------------------------------------


 First call to EWALD:  gamma=   0.087
 Maximum number of real-space cells 4x 4x 1
 Maximum number of reciprocal cells 2x 2x 7

    FEWALD:  cpu time    0.0247: real time    0.0248


--------------------------------------- Iteration      1(   1)  ---------------------------------------


    POTLOK:  cpu time    0.1136: real time    0.1367
    SETDIJ:  cpu time    0.1742: real time    0.1746
     EDDAV:  cpu time   54.3745: real time   54.5123
       DOS:  cpu time    0.0073: real time    0.0073
    --------------------------------------------
      LOOP:  cpu time   54.6695: real time   54.8309

 eigenvalue-minimisations  : 10596
 total energy-change (2. order) : 0.2687191E+05  (-0.9346774E+05)
 number of electron    1920.0000000 magnetization 
 augmentation part     1920.0000000 magnetization 

 Free energy of the ion-electron system (eV)
  ---------------------------------------------------
  alpha Z        PSCENC =      2316.29150265
  Ewald energy   TEWEN  =   4894357.12364186
  -Hartree energ DENC   =  -5064041.02373153
  -exchange      EXHF   =         0.00000000
  -V(xc)+E(xc)   XCENC  =      9387.94720081
  PAW double counting   =    156613.13156176  -155334.12778772
  entropy T*S    EENTRO =        -0.10295260
  eigenvalues    EBANDS =    -12651.12261475
  atomic energy  EATOM  =    196223.79558314
  Solvation  Ediel_sol  =         0.00000000
[...]
      9.76206      8.88328     29.05222        -0.000017      0.000014      0.045298
     11.06315     10.36382     31.04908         0.052688      0.017008     -0.037517
      8.46099     10.36382     31.04909        -0.052622      0.017018     -0.037504
      6.50805      8.88328     29.77714         0.000040      0.000009     -0.017026
      6.50805      8.88328     32.32563         0.000032      0.000001      0.056078
      7.72680     10.36382     34.45404         0.107623      0.064025      0.117828
     11.79732     10.36383     34.45404        -0.107652      0.064020      0.117849
      9.76206      8.88328     33.01713         0.000017      0.000003     -0.071072
      9.76206      8.88328     35.56553        -0.000009      0.000003      0.318462
      3.25402      1.48055     21.27209        -0.000000      0.014477     -3.546402
      0.00000      0.00000     21.27209         0.000014      0.000004      2.680904
      0.00000      1.48055     24.52611        -0.000086      0.020134      0.513316
      3.25402      0.00000     24.52611        -0.000093      0.000014     -0.677533
      3.25402      1.48055     27.78013        -0.000063      0.010171      0.645813
      0.00000      0.00000     27.78013        -0.000011      0.000050     -0.715137
      6.50797      1.48055     30.96562         0.000455     -0.001910     -0.034136
      3.25397      0.00000     31.15265         0.000269      0.000001      0.026561
      3.25403      1.48055     34.49661        -0.000126      0.021616      0.008039
      0.00001     11.84437     34.13837        -0.000071     -0.000008      0.011391
      3.25402      4.44164     21.27209         0.000009     -0.014378     -3.546363
      0.00000      2.96109     21.27209        -0.000072     -0.000004      2.712085
      0.00000      4.44164     24.52611        -0.000050     -0.020137      0.513297
      3.25402      2.96109     24.52611        -0.000059     -0.000017     -0.700380
      3.25402      4.44164     27.78013        -0.000047     -0.010085      0.645835
      0.00000      2.96109     27.78013         0.000007     -0.000017     -0.716973
      6.50797      4.44164     30.96562         0.000458      0.001951     -0.034190
      3.25397      2.96109     31.15265         0.000270     -0.000026      0.044545
      3.25403      4.44163     34.49661        -0.000131     -0.021619      0.008009
      0.00001      2.96109     34.13837        -0.000031     -0.000087      0.074230
      3.25402      7.40273     21.27209         0.000035      0.014215     -3.546402
      0.00000      5.92219     21.27209        -0.000003      0.000023      2.681301
      0.00000      7.40273     24.52611        -0.000049      0.020105      0.513369
      3.25402      5.92219     24.52611        -0.000033     -0.000009     -0.677552
      3.25402      7.40273     27.78013        -0.000055      0.010140      0.645880
      0.00000      5.92219     27.78013        -0.000009     -0.000062     -0.715266
      6.50797      7.40273     30.96562         0.000500     -0.001904     -0.034133
      3.25397      5.92219     31.15265         0.000290      0.000002      0.026574
      3.25403      7.40274     34.49661        -0.000110      0.021660      0.008055
      0.00001      5.92219     34.13837        -0.000052      0.000019      0.011351
      3.25402     10.36382     21.27209         0.000008     -0.014314     -3.546267
      0.00000      8.88328     21.27209        -0.000104      0.000004      2.712216
      0.00000     10.36382     24.52611        -0.000048     -0.020101      0.513356
      3.25402      8.88328     24.52611        -0.000018     -0.000019     -0.700220
      3.25402     10.36382     27.78013        -0.000090     -0.010136      0.645903
      0.00000      8.88328     27.78013        -0.000021      0.000078     -0.716950
      6.50797     10.36382     30.96562         0.000480      0.001891     -0.034123
      3.25397      8.88328     31.15265         0.000270     -0.000043      0.044528
      3.25403     10.36382     34.49661        -0.000104     -0.021664      0.008007
      0.00001      8.88328     34.13837        -0.000023     -0.000002      0.074284
      9.76206      1.48055     21.27209        -0.000097      0.014374     -3.546334
      6.50804      0.00000     21.27209        -0.000059     -0.000037      2.681670
      6.50804      1.48055     24.52611        -0.000032      0.020062      0.513313
      9.76206      0.00000     24.52611        -0.000040     -0.000052     -0.677592
      9.76206      1.48055     27.78013        -0.000082      0.010118      0.645817
      6.50804      0.00000     27.78013        -0.000004      0.000006     -0.715166
     13.01601      1.48055     30.96562         0.000474     -0.001894     -0.034111
      9.76201      0.00000     31.15265         0.000299     -0.000011      0.026567
      9.76206      1.48055     34.49661        -0.000151      0.021667      0.007975
      6.50804     11.84437     34.13837        -0.000076      0.000008      0.011406
      9.76206      4.44164     21.27209        -0.000087     -0.014362     -3.546357
      6.50804      2.96109     21.27209        -0.000031     -0.000039      2.712515
      6.50804      4.44164     24.52611        -0.000067     -0.020126      0.513281
      9.76206      2.96109     24.52611        -0.000011      0.000028     -0.700409
      9.76206      4.44164     27.78013        -0.000064     -0.010171      0.645920
      6.50804      2.96109     27.78013        -0.000029      0.000006     -0.716964
     13.01601      4.44164     30.96562         0.000481      0.001930     -0.034166
      9.76201      2.96109     31.15265         0.000269      0.000033      0.044512
      9.76206      4.44163     34.49661        -0.000139     -0.021595      0.007923
      6.50804      2.96109     34.13837        -0.000046      0.000024      0.074248
      9.76206      7.40273     21.27209        -0.000120      0.014386     -3.546380
      6.50804      5.92219     21.27209        -0.000050      0.000041      2.681636
      6.50804      7.40273     24.52611        -0.000073      0.020136      0.513311
      9.76206      5.92219     24.52611        -0.000085      0.000037     -0.677585
      9.76206      7.40273     27.78013        -0.000060      0.010115      0.645867
      6.50804      5.92219     27.78013        -0.000027      0.000021     -0.715133
     13.01601      7.40273     30.96562         0.000455     -0.001920     -0.034108
      9.76201      5.92219     31.15265         0.000273     -0.000021      0.026632
      9.76206      7.40274     34.49661        -0.000139      0.021571      0.007987
      6.50804      5.92219     34.13837        -0.000103      0.000015      0.011387
      9.76206     10.36382     21.27209        -0.000114     -0.014384     -3.546396
      6.50804      8.88328     21.27209        -0.000054      0.000038      2.712131
      6.50804     10.36382     24.52611         0.000005     -0.020160      0.513273
      9.76206      8.88328     24.52611        -0.000041      0.000070     -0.700218
      9.76206     10.36382     27.78013        -0.000055     -0.010170      0.645907
      6.50804      8.88328     27.78013         0.000003     -0.000027     -0.716883
     13.01601     10.36382     30.96562         0.000472      0.001885     -0.034102
      9.76201      8.88328     31.15265         0.000255     -0.000043      0.044547
      9.76206     10.36382     34.49661        -0.000142     -0.021678      0.007905
      6.50804      8.88328     34.13837        -0.000064     -0.000084      0.074262
 -----------------------------------------------------------------------------------
    total drift:                                0.010087     -0.000476      0.777849


--------------------------------------------------------------------------------------------------------



  FREE ENERGIE OF THE ION-ELECTRON SYSTEM (eV)
  ---------------------------------------------------
  free  energy   TOTEN  =     -2128.53196343 eV

  energy  without entropy=    -2128.53196343  energy(sigma->0) =    -2128.53196343
 


--------------------------------------------------------------------------------------------------------


    POTLOK:  cpu time    0.2605: real time    0.2611


--------------------------------------------------------------------------------------------------------


     LOOP+:  cpu time 1446.8986: real time 1450.8609
    4ORBIT:  cpu time    0.0000: real time    0.0000



 total charge

# of ion       s       p       d       tot
------------------------------------------
    1        1.577   3.484   0.000   5.061
    2        1.577   3.484   0.000   5.061
    3        1.585   3.371   0.000   4.956
    4        1.575   3.506   0.000   5.081
    5        1.574   3.501   0.000   5.076
    6        1.574   3.501   0.000   5.076
    7        1.573   3.490   0.000   5.063
    8        1.575   3.497   0.000   5.072
    9        1.575   3.499   0.000   5.074
   10        1.575   3.499   0.000   5.074
   11        1.575   3.503   0.000   5.078
   12        1.573   3.478   0.000   5.051
   13        1.573   3.497   0.000   5.070
   14        1.573   3.497   0.000   5.070
   15        1.578   3.519   0.000   5.098
   16        1.576   3.517   0.000   5.093
   17        1.573   3.492   0.000   5.064
   18        1.573   3.492   0.000   5.064
   19        1.573   3.474   0.000   5.047
   20        1.592   3.443   0.000   5.035
   21        1.577   3.484   0.000   5.061
   22        1.577   3.484   0.000   5.061
   23        1.584   3.371   0.000   4.955
   24        1.575   3.506   0.000   5.081
   25        1.574   3.501   0.000   5.076
   26        1.574   3.501   0.000   5.076
   27        1.573   3.490   0.000   5.063
   28        1.575   3.497   0.000   5.072
   29        1.575   3.499   0.000   5.074
   30        1.575   3.499   0.000   5.074
   31        1.575   3.503   0.000   5.078
   32        1.573   3.478   0.000   5.051
   33        1.573   3.497   0.000   5.070
   34        1.573   3.497   0.000   5.070
   35        1.578   3.520   0.000   5.098
   36        1.576   3.517   0.000   5.093
   37        1.573   3.492   0.000   5.064
   38        1.573   3.492   0.000   5.064
   39        1.572   3.474   0.000   5.047
   40        1.592   3.443   0.000   5.035
   41        1.577   3.484   0.000   5.061
   42        1.577   3.484   0.000   5.061
   43        1.585   3.371   0.000   4.956
   44        1.575   3.506   0.000   5.081
   45        1.574   3.501   0.000   5.076
   46        1.574   3.501   0.000   5.076
   47        1.573   3.490   0.000   5.063
   48        1.575   3.497   0.000   5.072
   49        1.575   3.499   0.000   5.074
   50        1.575   3.499   0.000   5.074
   51        1.575   3.503   0.000   5.078
   52        1.573   3.478   0.000   5.051
   53        1.573   3.497   0.000   5.070
   54        1.573   3.497   0.000   5.070
   55        1.578   3.519   0.000   5.098
   56        1.576   3.517   0.000   5.093
   57        1.573   3.492   0.000   5.064
   58        1.573   3.492   0.000   5.064
   59        1.573   3.474   0.000   5.047
   60        1.592   3.443   0.000   5.035
   61        1.577   3.484   0.000   5.061
   62        1.577   3.484   0.000   5.061
   63        1.584   3.371   0.000   4.955
   64        1.575   3.506   0.000   5.081
   65        1.574   3.501   0.000   5.076
   66        1.574   3.501   0.000   5.076
   67        1.573   3.490   0.000   5.063
   68        1.575   3.497   0.000   5.072
   69        1.575   3.499   0.000   5.074
   70        1.575   3.499   0.000   5.074
   71        1.575   3.503   0.000   5.078
   72        1.573   3.478   0.000   5.051
   73        1.573   3.497   0.000   5.070
   74        1.573   3.497   0.000   5.070
   75        1.578   3.520   0.000   5.098
   76        1.576   3.517   0.000   5.093
   77        1.573   3.492   0.000   5.064
   78        1.573   3.492   0.000   5.064
   79        1.572   3.474   0.000   5.047
   80        1.592   3.443   0.000   5.035
   81        1.577   3.484   0.000   5.061
   82        1.577   3.484   0.000   5.061
   83        1.585   3.371   0.000   4.956
   84        1.575   3.506   0.000   5.081
   85        1.574   3.501   0.000   5.076
   86        1.574   3.501   0.000   5.076
   87        1.573   3.490   0.000   5.063
   88        1.575   3.497   0.000   5.072
   89        1.575   3.499   0.000   5.074
   90        1.575   3.499   0.000   5.074
   91        1.575   3.503   0.000   5.078
   92        1.573   3.478   0.000   5.051
   93        1.573   3.497   0.000   5.070
   94        1.573   3.497   0.000   5.070
   95        1.578   3.519   0.000   5.098
   96        1.576   3.517   0.000   5.093
   97        1.573   3.492   0.000   5.064
   98        1.573   3.492   0.000   5.064
   99        1.573   3.474   0.000   5.047
  100        1.592   3.443   0.000   5.035
  101        1.577   3.484   0.000   5.061
  102        1.577   3.484   0.000   5.061
  103        1.584   3.371   0.000   4.955
  104        1.575   3.506   0.000   5.081
  105        1.574   3.501   0.000   5.076
  106        1.574   3.501   0.000   5.076
  107        1.573   3.490   0.000   5.063
  108        1.575   3.498   0.000   5.072
  109        1.575   3.499   0.000   5.074
  110        1.575   3.499   0.000   5.074
  111        1.575   3.503   0.000   5.078
  112        1.573   3.478   0.000   5.051
  113        1.573   3.497   0.000   5.070
  114        1.573   3.497   0.000   5.070
  115        1.578   3.520   0.000   5.098
  116        1.576   3.517   0.000   5.093
  117        1.573   3.492   0.000   5.064
  118        1.573   3.492   0.000   5.064
  119        1.572   3.474   0.000   5.047
  120        1.592   3.443   0.000   5.035
  121        1.577   3.484   0.000   5.061
  122        1.577   3.484   0.000   5.061
  123        1.585   3.371   0.000   4.956
  124        1.575   3.506   0.000   5.081
  125        1.574   3.501   0.000   5.076
  126        1.574   3.501   0.000   5.076
  127        1.573   3.490   0.000   5.063
  128        1.575   3.497   0.000   5.072
  129        1.575   3.499   0.000   5.074
  130        1.575   3.499   0.000   5.074
  131        1.575   3.503   0.000   5.078
  132        1.573   3.478   0.000   5.051
  133        1.573   3.497   0.000   5.070
  134        1.573   3.497   0.000   5.070
  135        1.578   3.519   0.000   5.098
  136        1.576   3.517   0.000   5.093
  137        1.573   3.492   0.000   5.064
  138        1.573   3.492   0.000   5.064
  139        1.573   3.474   0.000   5.047
  140        1.592   3.443   0.000   5.035
  141        1.577   3.484   0.000   5.061
  142        1.577   3.484   0.000   5.061
  143        1.584   3.371   0.000   4.955
  144        1.575   3.506   0.000   5.081
  145        1.574   3.501   0.000   5.076
  146        1.574   3.501   0.000   5.076
  147        1.573   3.490   0.000   5.063
  148        1.575   3.498   0.000   5.072
  149        1.575   3.499   0.000   5.074
  150        1.575   3.499   0.000   5.074
  151        1.575   3.503   0.000   5.078
  152        1.573   3.478   0.000   5.051
  153        1.573   3.497   0.000   5.070
  154        1.573   3.497   0.000   5.070
  155        1.578   3.520   0.000   5.098
  156        1.576   3.517   0.000   5.093
  157        1.573   3.492   0.000   5.064
  158        1.573   3.492   0.000   5.064
  159        1.572   3.474   0.000   5.047
  160        1.592   3.443   0.000   5.035
  161        2.218   6.296   1.754  10.268
  162        2.202   6.245   1.730  10.176
  163        2.221   6.297   1.710  10.228
  164        2.222   6.299   1.714  10.235
  165        2.221   6.298   1.717  10.236
  166        2.219   6.295   1.712  10.225
  167        2.225   6.304   1.736  10.265
  168        2.220   6.288   1.719  10.228
  169        2.220   6.285   1.784  10.290
  170        2.231   6.281   1.809  10.321
  171        2.218   6.296   1.754  10.268
  172        2.202   6.245   1.730  10.176
  173        2.221   6.297   1.710  10.228
  174        2.222   6.299   1.715  10.235
  175        2.221   6.298   1.717  10.236
  176        2.219   6.295   1.712  10.226
  177        2.225   6.304   1.736  10.265
  178        2.220   6.288   1.719  10.228
  179        2.220   6.285   1.784  10.290
  180        2.231   6.281   1.809  10.321
  181        2.218   6.296   1.754  10.268
  182        2.202   6.245   1.730  10.176
  183        2.221   6.297   1.710  10.228
  184        2.222   6.299   1.714  10.235
  185        2.221   6.298   1.717  10.236
  186        2.219   6.295   1.712  10.225
  187        2.225   6.304   1.736  10.265
  188        2.220   6.288   1.719  10.228
  189        2.220   6.285   1.784  10.290
  190        2.231   6.281   1.809  10.321
  191        2.218   6.296   1.754  10.268
  192        2.202   6.245   1.730  10.176
  193        2.221   6.297   1.710  10.228
  194        2.222   6.299   1.715  10.235
  195        2.221   6.298   1.717  10.236
  196        2.219   6.295   1.712  10.226
  197        2.225   6.304   1.736  10.265
  198        2.220   6.288   1.719  10.228
  199        2.220   6.285   1.784  10.290
  200        2.231   6.281   1.809  10.321
  201        2.218   6.296   1.754  10.268
  202        2.202   6.245   1.730  10.176
  203        2.221   6.297   1.710  10.228
  204        2.222   6.299   1.714  10.235
  205        2.221   6.298   1.717  10.236
  206        2.219   6.295   1.712  10.225
  207        2.225   6.304   1.736  10.265
  208        2.220   6.288   1.719  10.228
  209        2.220   6.285   1.784  10.290
  210        2.231   6.281   1.809  10.321
  211        2.218   6.296   1.754  10.268
  212        2.202   6.245   1.730  10.176
  213        2.221   6.297   1.710  10.228
  214        2.222   6.299   1.715  10.235
  215        2.221   6.298   1.717  10.236
  216        2.219   6.295   1.712  10.226
  217        2.225   6.304   1.736  10.265
  218        2.220   6.288   1.719  10.228
  219        2.220   6.285   1.784  10.290
  220        2.231   6.281   1.809  10.321
  221        2.218   6.296   1.754  10.268
  222        2.202   6.245   1.730  10.176
  223        2.221   6.297   1.710  10.228
  224        2.222   6.299   1.714  10.235
  225        2.221   6.298   1.717  10.236
  226        2.219   6.295   1.712  10.225
  227        2.225   6.304   1.736  10.265
  228        2.220   6.288   1.719  10.228
  229        2.220   6.285   1.784  10.290
  230        2.231   6.281   1.809  10.321
  231        2.218   6.296   1.754  10.268
  232        2.202   6.245   1.730  10.176
  233        2.221   6.297   1.710  10.228
  234        2.222   6.299   1.715  10.235
  235        2.221   6.298   1.717  10.236
  236        2.219   6.295   1.712  10.226
  237        2.225   6.304   1.736  10.265
  238        2.220   6.288   1.719  10.228
  239        2.220   6.285   1.784  10.290
  240        2.231   6.281   1.809  10.321
--------------------------------------------------
tot        429.7441061.056 139.0901629.891
 

 total amount of memory used by VASP MPI-rank0   196221. kBytes
=======================================================================

   base      :      30000. kBytes
   nonlr-proj:       8882. kBytes
   fftplans  :       8143. kBytes
   grid      :      13646. kBytes
   one-center:        186. kBytes
   wavefun   :     135364. kBytes
 
  
  
 General timing and accounting informations for this job:
 ========================================================
  
                  Total CPU time used (sec):     1603.800
                            User time (sec):     1584.285
                          System time (sec):       19.515
                         Elapsed time (sec):     1609.679
  
                   Maximum memory used (kb):      454840.
                   Average memory used (kb):          N/A
  
                          Minor page faults:       279377
                          Major page faults:            0
                 Voluntary context switches:        11946
