
                                 *****************
                                 * O   R   C   A *
                                 *****************

                                            #,                                       
                                            ###                                      
                                            ####                                     
                                            #####                                    
                                            ######                                   
                                           ########,                                 
                                     ,,################,,,,,                         
                               ,,#################################,,                 
                          ,,##########################################,,             
                       ,#########################################, ''#####,          
                    ,#############################################,,   '####,        
                  ,##################################################,,,,####,       
                ,###########''''           ''''###############################       
              ,#####''   ,,,,##########,,,,          '''####'''          '####       
            ,##' ,,,,###########################,,,                        '##       
           ' ,,###''''                  '''############,,,                           
         ,,##''                                '''############,,,,        ,,,,,,###''
      ,#''                                            '''#######################'''  
     '                                                          ''''####''''         
             ,#######,   #######,   ,#######,      ##                                
            ,#'     '#,  ##    ##  ,#'     '#,    #''#        ######   ,####,        
            ##       ##  ##   ,#'  ##            #'  '#       #        #'  '#        
            ##       ##  #######   ##           ,######,      #####,   #    #        
            '#,     ,#'  ##    ##  '#,     ,#' ,#      #,         ##   #,  ,#        
             '#######'   ##     ##  '#######'  #'      '#     #####' # '####'        



                  #######################################################
                  #                        -***-                        #
                  #          Department of theory and spectroscopy      #
                  #    Directorship and core code : Frank Neese         #
                  #        Max Planck Institute fuer Kohlenforschung    #
                  #                Kaiser Wilhelm Platz 1               #
                  #                 D-45470 Muelheim/Ruhr               #
                  #                      Germany                        #
                  #                                                     #
                  #                  All rights reserved                #
                  #                        -***-                        #
                  #######################################################


                         Program Version 5.0.1 -  RELEASE  -


 With contributions from (in alphabetic order):
   Daniel Aravena         : Magnetic Suceptibility
   Michael Atanasov       : Ab Initio Ligand Field Theory (pilot matlab implementation)
   Alexander A. Auer      : GIAO ZORA, VPT2 properties, NMR spectrum
   Ute Becker             : Parallelization
   Giovanni Bistoni       : ED, misc. LED, open-shell LED, HFLD
   Martin Brehm           : Molecular dynamics
   Dmytro Bykov           : SCF Hessian
   Vijay G. Chilkuri      : MRCI spin determinant printing, contributions to CSF-ICE
   Dipayan Datta          : RHF DLPNO-CCSD density
   Achintya Kumar Dutta   : EOM-CC, STEOM-CC
   Dmitry Ganyushin       : Spin-Orbit,Spin-Spin,Magnetic field MRCI
   Miquel Garcia          : C-PCM and meta-GGA Hessian, CC/C-PCM, Gaussian charge scheme
   Yang Guo               : DLPNO-NEVPT2, F12-NEVPT2, CIM, IAO-localization
   Andreas Hansen         : Spin unrestricted coupled pair/coupled cluster methods
   Benjamin Helmich-Paris : MC-RPA, TRAH-SCF, COSX integrals
   Lee Huntington         : MR-EOM, pCC
   Robert Izsak           : Overlap fitted RIJCOSX, COSX-SCS-MP3, EOM
   Marcus Kettner         : VPT2
   Christian Kollmar      : KDIIS, OOCD, Brueckner-CCSD(T), CCSD density, CASPT2, CASPT2-K
   Simone Kossmann        : Meta GGA functionals, TD-DFT gradient, OOMP2, MP2 Hessian
   Martin Krupicka        : Initial AUTO-CI
   Lucas Lang             : DCDCAS
   Marvin Lechner         : AUTO-CI (C++ implementation), FIC-MRCC
   Dagmar Lenk            : GEPOL surface, SMD
   Dimitrios Liakos       : Extrapolation schemes; Compound Job, initial MDCI parallelization
   Dimitrios Manganas     : Further ROCIS development; embedding schemes
   Dimitrios Pantazis     : SARC Basis sets
   Anastasios Papadopoulos: AUTO-CI, single reference methods and gradients
   Taras Petrenko         : DFT Hessian,TD-DFT gradient, ASA, ECA, R-Raman, ABS, FL, XAS/XES, NRVS
   Peter Pinski           : DLPNO-MP2, DLPNO-MP2 Gradient
   Christoph Reimann      : Effective Core Potentials
   Marius Retegan         : Local ZFS, SOC
   Christoph Riplinger    : Optimizer, TS searches, QM/MM, DLPNO-CCSD(T), (RO)-DLPNO pert. Triples
   Tobias Risthaus        : Range-separated hybrids, TD-DFT gradient, RPA, STAB
   Michael Roemelt        : Original ROCIS implementation
   Masaaki Saitow         : Open-shell DLPNO-CCSD energy and density
   Barbara Sandhoefer     : DKH picture change effects
   Avijit Sen             : IP-ROCIS
   Kantharuban Sivalingam : CASSCF convergence, NEVPT2, FIC-MRCI
   Bernardo de Souza      : ESD, SOC TD-DFT
   Georgi Stoychev        : AutoAux, RI-MP2 NMR, DLPNO-MP2 response
   Willem Van den Heuvel  : Paramagnetic NMR
   Boris Wezisla          : Elementary symmetry handling
   Frank Wennmohs         : Technical directorship


 We gratefully acknowledge several colleagues who have allowed us to
 interface, adapt or use parts of their codes:
   Stefan Grimme, W. Hujo, H. Kruse, P. Pracht,  : VdW corrections, initial TS optimization,
                  C. Bannwarth, S. Ehlert          DFT functionals, gCP, sTDA/sTD-DF
   Ed Valeev, F. Pavosevic, A. Kumar             : LibInt (2-el integral package), F12 methods
   Garnet Chan, S. Sharma, J. Yang, R. Olivares  : DMRG
   Ulf Ekstrom                                   : XCFun DFT Library
   Mihaly Kallay                                 : mrcc  (arbitrary order and MRCC methods)
   Jiri Pittner, Ondrej Demel                    : Mk-CCSD
   Frank Weinhold                                : gennbo (NPA and NBO analysis)
   Christopher J. Cramer and Donald G. Truhlar   : smd solvation model
   Lars Goerigk                                  : TD-DFT with DH, B97 family of functionals
   V. Asgeirsson, H. Jonsson                     : NEB implementation
   FAccTs GmbH                                   : IRC, NEB, NEB-TS, DLPNO-Multilevel, CI-OPT
                                                   MM, QMMM, 2- and 3-layer-ONIOM, Crystal-QMMM,
                                                   LR-CPCM, SF, NACMEs, symmetry and pop. for TD-DFT,
                                                   nearIR, NL-DFT gradient (VV10), updates on ESD,
                                                   ML-optimized integration grids
   S Lehtola, MJT Oliveira, MAL Marques          : LibXC Library
   Liviu Ungur et al                             : ANISO software


 Your calculation uses the libint2 library for the computation of 2-el integrals
 For citations please refer to: http://libint.valeyev.net

 Your ORCA version has been built with support for libXC version: 5.1.0
 For citations please refer to: https://tddft.org/programs/libxc/

 This ORCA versions uses:
   CBLAS   interface :  Fast vector & matrix operations
   LAPACKE interface :  Fast linear algebra routines
   SCALAPACK package :  Parallel linear algebra routines
   Shared memory     :  Shared parallel matrices
   BLAS/LAPACK       :  OpenBLAS 0.3.15  USE64BITINT DYNAMIC_ARCH NO_AFFINITY Prescott SINGLE_THREADED
        Core in use  :  Prescott
   Copyright (c) 2011-2014, The OpenBLAS Project


SCAN-COORDS
================================================================================

----- Orbital basis set information -----
Your calculation utilizes the basis: def2-TZVPP
   F. Weigend and R. Ahlrichs, Phys. Chem. Chem. Phys. 7, 3297 (2005).

----- AuxJ basis set information -----
Your calculation utilizes the auxiliary basis: def2/J
   F. Weigend, Phys. Chem. Chem. Phys. 8, 1057 (2006).

================================================================================
                                        WARNINGS
                       Please study these warnings very carefully!
================================================================================

WARNING: The globally-selected AuxJ basis set is optimized for use with ECPs
         Make sure a suitable alternative is explicitly given all heavy elements (Z>36)

INFO   : the flag for use of the SHARK integral package has been found!

================================================================================
                                       INPUT FILE
================================================================================
NAME = orca.inp
|  1> ! TightSCF SlowConv DIIS
|  2> %maxcore 18000
|  3> %pal
|  4>   nprocs 24
|  5> end
|  6> %pointcharges "orca.bq"
|  7> %method
|  8>   Method DFT
|  9> Functional PBE
| 10>   RI on
| 11>   RunTyp Energy
| 12> end
| 13> %basis
| 14>   Basis "def2-TZVPP"
| 15>   Aux "def2/J"
| 16> end
| 17> %scf
| 18>   HFTyp rks
| 19>   Guess Hueckel
| 20>   AutoStart True
| 21>   SCFMode Direct
| 22>   MaxIter 1000
| 23>   sthresh 1e-6
| 24>   AutoTRAHIter 100
| 25> end
| 26> %coords
| 27>   CTyp xyz
| 28>   Mult 1
| 29>   Units angs
| 30>   Charge -48
| 31>   coords
| 32> O                       0.00000000000    0.00000000000    0.00000000000
| 33> Ti                      0.00000000000    1.48054676798   -1.27209143018
| 34> Ti                      0.00000000000   -1.48054676798   -1.27209143018
| 35> Ti                      0.00000000000    0.00000000000    1.98192821856
| 36> O                      -0.00000000000    0.00000000000   -2.54418286035
| 37> O                      -1.27209143018    1.48054676798    1.98192821856
| 38> O                       1.27209143018    1.48054676798    1.98192821856
| 39> O                       1.27209143018   -1.48054676798    1.98192821856
| 40> O                      -1.27209143018   -1.48054676798    1.98192821856
| 41> O                      -1.98192821856    1.48054676798   -1.27209143018
| 42> O                       1.98192821856    1.48054676798   -1.27209143018
| 43> O                       1.98192821856   -1.48054676798   -1.27209143018
| 44> O                      -1.98192821856   -1.48054676798   -1.27209143018
| 45> O                       0.00000000000    2.96109353596    0.00000000000
| 46> O                       0.00000000000   -2.96109353596    0.00000000000
| 47> O                      -3.25401964873    0.00000000000    0.70983678838
| 48> O                       3.25401964873    0.00000000000    0.70983678838
| 49> Ti                     -3.25401964873    0.00000000000   -1.27209143018
| 50> Ti                      3.25401964873    0.00000000000   -1.27209143018
| 51> Ti                      0.00000000000    2.96109353596    1.98192821856
| 52> Ti                      0.00000000000   -2.96109353596    1.98192821856
| 53> O                      -0.00000000000    2.96109353596   -2.54418286035
| 54> O                      -0.00000000000   -2.96109353596   -2.54418286035
| 55> O                      -0.00000000000    0.00000000000    3.96385643712
| 56> Ti                     -3.25401964873    1.48054676798    1.98192821856
| 57> Ti                      3.25401964873    1.48054676798    1.98192821856
| 58> Ti                      3.25401964873   -1.48054676798    1.98192821856
| 59> Ti                     -3.25401964873   -1.48054676798    1.98192821856
| 60> O                      -3.25401964873    2.96109353596    0.70983678838
| 61> O                       3.25401964873    2.96109353596    0.70983678838
| 62> O                       3.25401964873   -2.96109353596    0.70983678838
| 63> O                      -3.25401964873   -2.96109353596    0.70983678838
| 64> Ti                      0.00000000000    0.00000000000   -4.52611107891
| 65> O                      -3.25401964873    0.00000000000    3.25401964873
| 66> O                       3.25401964873    0.00000000000    3.25401964873
| 67> O                      -3.25401964873    0.00000000000   -3.25401964873
| 68> O                       3.25401964873    0.00000000000   -3.25401964873
| 69> O                      -4.52611107891    1.48054676798   -1.27209143018
| 70> O                       4.52611107891    1.48054676798   -1.27209143018
| 71> O                       4.52611107891   -1.48054676798   -1.27209143018
| 72> O                      -4.52611107891   -1.48054676798   -1.27209143018
| 73> O                      -1.27209143018    1.48054676798   -4.52611107891
| 74> O                       1.27209143018    1.48054676798   -4.52611107891
| 75> O                       1.27209143018   -1.48054676798   -4.52611107891
| 76> O                      -1.27209143018   -1.48054676798   -4.52611107891
| 77> O                      -0.00000000000    2.96109353596    3.96385643712
| 78> O                      -0.00000000000   -2.96109353596    3.96385643712
| 79> O                      -1.27209143018    4.44164030394    1.98192821856
| 80> O                       1.27209143018    4.44164030394    1.98192821856
| 81> O                       1.27209143018   -4.44164030394    1.98192821856
| 82> O                      -1.27209143018   -4.44164030394    1.98192821856
| 83> O                      -3.25401964873    2.96109353596    3.25401964873
| 84> O                       3.25401964873    2.96109353596    3.25401964873
| 85> O                       3.25401964873   -2.96109353596    3.25401964873
| 86> O                      -3.25401964873   -2.96109353596    3.25401964873
| 87> O                      -5.23594786729    1.48054676798    1.98192821856
| 88> O                       5.23594786729    1.48054676798    1.98192821856
| 89> O                       5.23594786729   -1.48054676798    1.98192821856
| 90> O                      -5.23594786729   -1.48054676798    1.98192821856
| 91> O                       0.00000000000    0.00000000000   -6.50803929747
| 92> Ti>    4.00000000000   -3.25401964873    2.96109353596   -1.27209143018
| 93> NewECP
| 94> N_core 0
| 95>   lmax f
| 96>   s 2
| 97>    1      0.860000       9.191690  2
| 98>    2      0.172000       0.008301  2
| 99>   p 2
|100>    1      0.860000      17.997720  2
|101>    2      0.172000      -0.032600  2
|102>   d 2
|103>    1      1.600000      -9.504310  2
|104>    2      0.320000      -0.151370  2
|105>   f 1
|106>    1      1.000000000    0.000000000 2
|107> end
|108> Ti>    4.00000000000    3.25401964873    2.96109353596   -1.27209143018
|109> NewECP
|110> N_core 0
|111>   lmax f
|112>   s 2
|113>    1      0.860000       9.191690  2
|114>    2      0.172000       0.008301  2
|115>   p 2
|116>    1      0.860000      17.997720  2
|117>    2      0.172000      -0.032600  2
|118>   d 2
|119>    1      1.600000      -9.504310  2
|120>    2      0.320000      -0.151370  2
|121>   f 1
|122>    1      1.000000000    0.000000000 2
|123> end
|124> Ti>    4.00000000000    3.25401964873   -2.96109353596   -1.27209143018
|125> NewECP
|126> N_core 0
|127>   lmax f
|128>   s 2
|129>    1      0.860000       9.191690  2
|130>    2      0.172000       0.008301  2
|131>   p 2
|132>    1      0.860000      17.997720  2
|133>    2      0.172000      -0.032600  2
|134>   d 2
|135>    1      1.600000      -9.504310  2
|136>    2      0.320000      -0.151370  2
|137>   f 1
|138>    1      1.000000000    0.000000000 2
|139> end
|140> Ti>    4.00000000000   -3.25401964873   -2.96109353596   -1.27209143018
|141> NewECP
|142> N_core 0
|143>   lmax f
|144>   s 2
|145>    1      0.860000       9.191690  2
|146>    2      0.172000       0.008301  2
|147>   p 2
|148>    1      0.860000      17.997720  2
|149>    2      0.172000      -0.032600  2
|150>   d 2
|151>    1      1.600000      -9.504310  2
|152>    2      0.320000      -0.151370  2
|153>   f 1
|154>    1      1.000000000    0.000000000 2
|155> end
|156> Ti>    4.00000000000    0.00000000000    4.44164030394   -1.27209143018
|157> NewECP
|158> N_core 0
|159>   lmax f
|160>   s 2
|161>    1      0.860000       9.191690  2
|162>    2      0.172000       0.008301  2
|163>   p 2
|164>    1      0.860000      17.997720  2
|165>    2      0.172000      -0.032600  2
|166>   d 2
|167>    1      1.600000      -9.504310  2
|168>    2      0.320000      -0.151370  2
|169>   f 1
|170>    1      1.000000000    0.000000000 2
|171> end
|172> Ti>    4.00000000000    0.00000000000   -4.44164030394   -1.27209143018
|173> NewECP
|174> N_core 0
|175>   lmax f
|176>   s 2
|177>    1      0.860000       9.191690  2
|178>    2      0.172000       0.008301  2
|179>   p 2
|180>    1      0.860000      17.997720  2
|181>    2      0.172000      -0.032600  2
|182>   d 2
|183>    1      1.600000      -9.504310  2
|184>    2      0.320000      -0.151370  2
|185>   f 1
|186>    1      1.000000000    0.000000000 2
|187> end
|188> Ti>    4.00000000000    0.00000000000    2.96109353596   -4.52611107891
|189> NewECP
|190> N_core 0
|191>   lmax f
|192>   s 2
|193>    1      0.860000       9.191690  2
|194>    2      0.172000       0.008301  2
|195>   p 2
|196>    1      0.860000      17.997720  2
|197>    2      0.172000      -0.032600  2
|198>   d 2
|199>    1      1.600000      -9.504310  2
|200>    2      0.320000      -0.151370  2
|201>   f 1
|202>    1      1.000000000    0.000000000 2
|203> end
|204> Ti>    4.00000000000    0.00000000000   -2.96109353596   -4.52611107891
|205> NewECP
|206> N_core 0
|207>   lmax f
|208>   s 2
|209>    1      0.860000       9.191690  2
|210>    2      0.172000       0.008301  2
|211>   p 2
|212>    1      0.860000      17.997720  2
|213>    2      0.172000      -0.032600  2
|214>   d 2
|215>    1      1.600000      -9.504310  2
|216>    2      0.320000      -0.151370  2
|217>   f 1
|218>    1      1.000000000    0.000000000 2
|219> end
|220> Ti>    4.00000000000    0.00000000000    1.48054676798    5.23594786729
|221> NewECP
|222> N_core 0
|223>   lmax f
|224>   s 2
|225>    1      0.860000       9.191690  2
|226>    2      0.172000       0.008301  2
|227>   p 2
|228>    1      0.860000      17.997720  2
|229>    2      0.172000      -0.032600  2
|230>   d 2
|231>    1      1.600000      -9.504310  2
|232>    2      0.320000      -0.151370  2
|233>   f 1
|234>    1      1.000000000    0.000000000 2
|235> end
|236> Ti>    4.00000000000    0.00000000000   -1.48054676798    5.23594786729
|237> NewECP
|238> N_core 0
|239>   lmax f
|240>   s 2
|241>    1      0.860000       9.191690  2
|242>    2      0.172000       0.008301  2
|243>   p 2
|244>    1      0.860000      17.997720  2
|245>    2      0.172000      -0.032600  2
|246>   d 2
|247>    1      1.600000      -9.504310  2
|248>    2      0.320000      -0.151370  2
|249>   f 1
|250>    1      1.000000000    0.000000000 2
|251> end
|252> Ti>    4.00000000000   -3.25401964873    1.48054676798   -4.52611107891
|253> NewECP
|254> N_core 0
|255>   lmax f
|256>   s 2
|257>    1      0.860000       9.191690  2
|258>    2      0.172000       0.008301  2
|259>   p 2
|260>    1      0.860000      17.997720  2
|261>    2      0.172000      -0.032600  2
|262>   d 2
|263>    1      1.600000      -9.504310  2
|264>    2      0.320000      -0.151370  2
|265>   f 1
|266>    1      1.000000000    0.000000000 2
|267> end
|268> Ti>    4.00000000000    3.25401964873    1.48054676798   -4.52611107891
|269> NewECP
|270> N_core 0
|271>   lmax f
|272>   s 2
|273>    1      0.860000       9.191690  2
|274>    2      0.172000       0.008301  2
|275>   p 2
|276>    1      0.860000      17.997720  2
|277>    2      0.172000      -0.032600  2
|278>   d 2
|279>    1      1.600000      -9.504310  2
|280>    2      0.320000      -0.151370  2
|281>   f 1
|282>    1      1.000000000    0.000000000 2
|283> end
|284> Ti>    4.00000000000    3.25401964873   -1.48054676798   -4.52611107891
|285> NewECP
|286> N_core 0
|287>   lmax f
|288>   s 2
|289>    1      0.860000       9.191690  2
|290>    2      0.172000       0.008301  2
|291>   p 2
|292>    1      0.860000      17.997720  2
|293>    2      0.172000      -0.032600  2
|294>   d 2
|295>    1      1.600000      -9.504310  2
|296>    2      0.320000      -0.151370  2
|297>   f 1
|298>    1      1.000000000    0.000000000 2
|299> end
|300> Ti>    4.00000000000   -3.25401964873   -1.48054676798   -4.52611107891
|301> NewECP
|302> N_core 0
|303>   lmax f
|304>   s 2
|305>    1      0.860000       9.191690  2
|306>    2      0.172000       0.008301  2
|307>   p 2
|308>    1      0.860000      17.997720  2
|309>    2      0.172000      -0.032600  2
|310>   d 2
|311>    1      1.600000      -9.504310  2
|312>    2      0.320000      -0.151370  2
|313>   f 1
|314>    1      1.000000000    0.000000000 2
|315> end
|316> Ti>    4.00000000000   -3.25401964873    4.44164030394    1.98192821856
|317> NewECP
|318> N_core 0
|319>   lmax f
|320>   s 2
|321>    1      0.860000       9.191690  2
|322>    2      0.172000       0.008301  2
|323>   p 2
|324>    1      0.860000      17.997720  2
|325>    2      0.172000      -0.032600  2
|326>   d 2
|327>    1      1.600000      -9.504310  2
|328>    2      0.320000      -0.151370  2
|329>   f 1
|330>    1      1.000000000    0.000000000 2
|331> end
|332> Ti>    4.00000000000    3.25401964873    4.44164030394    1.98192821856
|333> NewECP
|334> N_core 0
|335>   lmax f
|336>   s 2
|337>    1      0.860000       9.191690  2
|338>    2      0.172000       0.008301  2
|339>   p 2
|340>    1      0.860000      17.997720  2
|341>    2      0.172000      -0.032600  2
|342>   d 2
|343>    1      1.600000      -9.504310  2
|344>    2      0.320000      -0.151370  2
|345>   f 1
|346>    1      1.000000000    0.000000000 2
|347> end
|348> Ti>    4.00000000000    3.25401964873   -4.44164030394    1.98192821856
|349> NewECP
|350> N_core 0
|351>   lmax f
|352>   s 2
|353>    1      0.860000       9.191690  2
|354>    2      0.172000       0.008301  2
|355>   p 2
|356>    1      0.860000      17.997720  2
|357>    2      0.172000      -0.032600  2
|358>   d 2
|359>    1      1.600000      -9.504310  2
|360>    2      0.320000      -0.151370  2
|361>   f 1
|362>    1      1.000000000    0.000000000 2
|363> end
|364> Ti>    4.00000000000   -3.25401964873   -4.44164030394    1.98192821856
|365> NewECP
|366> N_core 0
|367>   lmax f
|368>   s 2
|369>    1      0.860000       9.191690  2
|370>    2      0.172000       0.008301  2
|371>   p 2
|372>    1      0.860000      17.997720  2
|373>    2      0.172000      -0.032600  2
|374>   d 2
|375>    1      1.600000      -9.504310  2
|376>    2      0.320000      -0.151370  2
|377>   f 1
|378>    1      1.000000000    0.000000000 2
|379> end
|380> Ti>    4.00000000000   -3.25401964873    0.00000000000    5.23594786729
|381> NewECP
|382> N_core 0
|383>   lmax f
|384>   s 2
|385>    1      0.860000       9.191690  2
|386>    2      0.172000       0.008301  2
|387>   p 2
|388>    1      0.860000      17.997720  2
|389>    2      0.172000      -0.032600  2
|390>   d 2
|391>    1      1.600000      -9.504310  2
|392>    2      0.320000      -0.151370  2
|393>   f 1
|394>    1      1.000000000    0.000000000 2
|395> end
|396> Ti>    4.00000000000    3.25401964873    0.00000000000    5.23594786729
|397> NewECP
|398> N_core 0
|399>   lmax f
|400>   s 2
|401>    1      0.860000       9.191690  2
|402>    2      0.172000       0.008301  2
|403>   p 2
|404>    1      0.860000      17.997720  2
|405>    2      0.172000      -0.032600  2
|406>   d 2
|407>    1      1.600000      -9.504310  2
|408>    2      0.320000      -0.151370  2
|409>   f 1
|410>    1      1.000000000    0.000000000 2
|411> end
|412> Ti>    4.00000000000    0.00000000000    5.92218707193    1.98192821856
|413> NewECP
|414> N_core 0
|415>   lmax f
|416>   s 2
|417>    1      0.860000       9.191690  2
|418>    2      0.172000       0.008301  2
|419>   p 2
|420>    1      0.860000      17.997720  2
|421>    2      0.172000      -0.032600  2
|422>   d 2
|423>    1      1.600000      -9.504310  2
|424>    2      0.320000      -0.151370  2
|425>   f 1
|426>    1      1.000000000    0.000000000 2
|427> end
|428> Ti>    4.00000000000    0.00000000000   -5.92218707193    1.98192821856
|429> NewECP
|430> N_core 0
|431>   lmax f
|432>   s 2
|433>    1      0.860000       9.191690  2
|434>    2      0.172000       0.008301  2
|435>   p 2
|436>    1      0.860000      17.997720  2
|437>    2      0.172000      -0.032600  2
|438>   d 2
|439>    1      1.600000      -9.504310  2
|440>    2      0.320000      -0.151370  2
|441>   f 1
|442>    1      1.000000000    0.000000000 2
|443> end
|444> Ti>    4.00000000000   -6.50803929747    1.48054676798   -1.27209143018
|445> NewECP
|446> N_core 0
|447>   lmax f
|448>   s 2
|449>    1      0.860000       9.191690  2
|450>    2      0.172000       0.008301  2
|451>   p 2
|452>    1      0.860000      17.997720  2
|453>    2      0.172000      -0.032600  2
|454>   d 2
|455>    1      1.600000      -9.504310  2
|456>    2      0.320000      -0.151370  2
|457>   f 1
|458>    1      1.000000000    0.000000000 2
|459> end
|460> Ti>    4.00000000000    6.50803929747    1.48054676798   -1.27209143018
|461> NewECP
|462> N_core 0
|463>   lmax f
|464>   s 2
|465>    1      0.860000       9.191690  2
|466>    2      0.172000       0.008301  2
|467>   p 2
|468>    1      0.860000      17.997720  2
|469>    2      0.172000      -0.032600  2
|470>   d 2
|471>    1      1.600000      -9.504310  2
|472>    2      0.320000      -0.151370  2
|473>   f 1
|474>    1      1.000000000    0.000000000 2
|475> end
|476> Ti>    4.00000000000    6.50803929747   -1.48054676798   -1.27209143018
|477> NewECP
|478> N_core 0
|479>   lmax f
|480>   s 2
|481>    1      0.860000       9.191690  2
|482>    2      0.172000       0.008301  2
|483>   p 2
|484>    1      0.860000      17.997720  2
|485>    2      0.172000      -0.032600  2
|486>   d 2
|487>    1      1.600000      -9.504310  2
|488>    2      0.320000      -0.151370  2
|489>   f 1
|490>    1      1.000000000    0.000000000 2
|491> end
|492> Ti>    4.00000000000   -6.50803929747   -1.48054676798   -1.27209143018
|493> NewECP
|494> N_core 0
|495>   lmax f
|496>   s 2
|497>    1      0.860000       9.191690  2
|498>    2      0.172000       0.008301  2
|499>   p 2
|500>    1      0.860000      17.997720  2
|501>    2      0.172000      -0.032600  2
|502>   d 2
|503>    1      1.600000      -9.504310  2
|504>    2      0.320000      -0.151370  2
|505>   f 1
|506>    1      1.000000000    0.000000000 2
|507> end
|508> Ti>    4.00000000000   -6.50803929747    0.00000000000    1.98192821856
|509> NewECP
|510> N_core 0
|511>   lmax f
|512>   s 2
|513>    1      0.860000       9.191690  2
|514>    2      0.172000       0.008301  2
|515>   p 2
|516>    1      0.860000      17.997720  2
|517>    2      0.172000      -0.032600  2
|518>   d 2
|519>    1      1.600000      -9.504310  2
|520>    2      0.320000      -0.151370  2
|521>   f 1
|522>    1      1.000000000    0.000000000 2
|523> end
|524> Ti>    4.00000000000    6.50803929747    0.00000000000    1.98192821856
|525> NewECP
|526> N_core 0
|527>   lmax f
|528>   s 2
|529>    1      0.860000       9.191690  2
|530>    2      0.172000       0.008301  2
|531>   p 2
|532>    1      0.860000      17.997720  2
|533>    2      0.172000      -0.032600  2
|534>   d 2
|535>    1      1.600000      -9.504310  2
|536>    2      0.320000      -0.151370  2
|537>   f 1
|538>    1      1.000000000    0.000000000 2
|539> end
|540> Ti>    4.00000000000   -3.25401964873    2.96109353596    5.23594786729
|541> NewECP
|542> N_core 0
|543>   lmax f
|544>   s 2
|545>    1      0.860000       9.191690  2
|546>    2      0.172000       0.008301  2
|547>   p 2
|548>    1      0.860000      17.997720  2
|549>    2      0.172000      -0.032600  2
|550>   d 2
|551>    1      1.600000      -9.504310  2
|552>    2      0.320000      -0.151370  2
|553>   f 1
|554>    1      1.000000000    0.000000000 2
|555> end
|556> Ti>    4.00000000000    3.25401964873    2.96109353596    5.23594786729
|557> NewECP
|558> N_core 0
|559>   lmax f
|560>   s 2
|561>    1      0.860000       9.191690  2
|562>    2      0.172000       0.008301  2
|563>   p 2
|564>    1      0.860000      17.997720  2
|565>    2      0.172000      -0.032600  2
|566>   d 2
|567>    1      1.600000      -9.504310  2
|568>    2      0.320000      -0.151370  2
|569>   f 1
|570>    1      1.000000000    0.000000000 2
|571> end
|572> Ti>    4.00000000000    3.25401964873   -2.96109353596    5.23594786729
|573> NewECP
|574> N_core 0
|575>   lmax f
|576>   s 2
|577>    1      0.860000       9.191690  2
|578>    2      0.172000       0.008301  2
|579>   p 2
|580>    1      0.860000      17.997720  2
|581>    2      0.172000      -0.032600  2
|582>   d 2
|583>    1      1.600000      -9.504310  2
|584>    2      0.320000      -0.151370  2
|585>   f 1
|586>    1      1.000000000    0.000000000 2
|587> end
|588> Ti>    4.00000000000   -3.25401964873   -2.96109353596    5.23594786729
|589> NewECP
|590> N_core 0
|591>   lmax f
|592>   s 2
|593>    1      0.860000       9.191690  2
|594>    2      0.172000       0.008301  2
|595>   p 2
|596>    1      0.860000      17.997720  2
|597>    2      0.172000      -0.032600  2
|598>   d 2
|599>    1      1.600000      -9.504310  2
|600>    2      0.320000      -0.151370  2
|601>   f 1
|602>    1      1.000000000    0.000000000 2
|603> end
|604> Ti>    4.00000000000    0.00000000000    4.44164030394    5.23594786729
|605> NewECP
|606> N_core 0
|607>   lmax f
|608>   s 2
|609>    1      0.860000       9.191690  2
|610>    2      0.172000       0.008301  2
|611>   p 2
|612>    1      0.860000      17.997720  2
|613>    2      0.172000      -0.032600  2
|614>   d 2
|615>    1      1.600000      -9.504310  2
|616>    2      0.320000      -0.151370  2
|617>   f 1
|618>    1      1.000000000    0.000000000 2
|619> end
|620> Ti>    4.00000000000    0.00000000000   -4.44164030394    5.23594786729
|621> NewECP
|622> N_core 0
|623>   lmax f
|624>   s 2
|625>    1      0.860000       9.191690  2
|626>    2      0.172000       0.008301  2
|627>   p 2
|628>    1      0.860000      17.997720  2
|629>    2      0.172000      -0.032600  2
|630>   d 2
|631>    1      1.600000      -9.504310  2
|632>    2      0.320000      -0.151370  2
|633>   f 1
|634>    1      1.000000000    0.000000000 2
|635> end
|636> Ti>    4.00000000000   -3.25401964873    5.92218707193   -1.27209143018
|637> NewECP
|638> N_core 0
|639>   lmax f
|640>   s 2
|641>    1      0.860000       9.191690  2
|642>    2      0.172000       0.008301  2
|643>   p 2
|644>    1      0.860000      17.997720  2
|645>    2      0.172000      -0.032600  2
|646>   d 2
|647>    1      1.600000      -9.504310  2
|648>    2      0.320000      -0.151370  2
|649>   f 1
|650>    1      1.000000000    0.000000000 2
|651> end
|652> Ti>    4.00000000000    3.25401964873    5.92218707193   -1.27209143018
|653> NewECP
|654> N_core 0
|655>   lmax f
|656>   s 2
|657>    1      0.860000       9.191690  2
|658>    2      0.172000       0.008301  2
|659>   p 2
|660>    1      0.860000      17.997720  2
|661>    2      0.172000      -0.032600  2
|662>   d 2
|663>    1      1.600000      -9.504310  2
|664>    2      0.320000      -0.151370  2
|665>   f 1
|666>    1      1.000000000    0.000000000 2
|667> end
|668> Ti>    4.00000000000    3.25401964873   -5.92218707193   -1.27209143018
|669> NewECP
|670> N_core 0
|671>   lmax f
|672>   s 2
|673>    1      0.860000       9.191690  2
|674>    2      0.172000       0.008301  2
|675>   p 2
|676>    1      0.860000      17.997720  2
|677>    2      0.172000      -0.032600  2
|678>   d 2
|679>    1      1.600000      -9.504310  2
|680>    2      0.320000      -0.151370  2
|681>   f 1
|682>    1      1.000000000    0.000000000 2
|683> end
|684> Ti>    4.00000000000   -3.25401964873   -5.92218707193   -1.27209143018
|685> NewECP
|686> N_core 0
|687>   lmax f
|688>   s 2
|689>    1      0.860000       9.191690  2
|690>    2      0.172000       0.008301  2
|691>   p 2
|692>    1      0.860000      17.997720  2
|693>    2      0.172000      -0.032600  2
|694>   d 2
|695>    1      1.600000      -9.504310  2
|696>    2      0.320000      -0.151370  2
|697>   f 1
|698>    1      1.000000000    0.000000000 2
|699> end
|700> Ti>    4.00000000000   -3.25401964873    4.44164030394   -4.52611107891
|701> NewECP
|702> N_core 0
|703>   lmax f
|704>   s 2
|705>    1      0.860000       9.191690  2
|706>    2      0.172000       0.008301  2
|707>   p 2
|708>    1      0.860000      17.997720  2
|709>    2      0.172000      -0.032600  2
|710>   d 2
|711>    1      1.600000      -9.504310  2
|712>    2      0.320000      -0.151370  2
|713>   f 1
|714>    1      1.000000000    0.000000000 2
|715> end
|716> Ti>    4.00000000000    3.25401964873    4.44164030394   -4.52611107891
|717> NewECP
|718> N_core 0
|719>   lmax f
|720>   s 2
|721>    1      0.860000       9.191690  2
|722>    2      0.172000       0.008301  2
|723>   p 2
|724>    1      0.860000      17.997720  2
|725>    2      0.172000      -0.032600  2
|726>   d 2
|727>    1      1.600000      -9.504310  2
|728>    2      0.320000      -0.151370  2
|729>   f 1
|730>    1      1.000000000    0.000000000 2
|731> end
|732> Ti>    4.00000000000    3.25401964873   -4.44164030394   -4.52611107891
|733> NewECP
|734> N_core 0
|735>   lmax f
|736>   s 2
|737>    1      0.860000       9.191690  2
|738>    2      0.172000       0.008301  2
|739>   p 2
|740>    1      0.860000      17.997720  2
|741>    2      0.172000      -0.032600  2
|742>   d 2
|743>    1      1.600000      -9.504310  2
|744>    2      0.320000      -0.151370  2
|745>   f 1
|746>    1      1.000000000    0.000000000 2
|747> end
|748> Ti>    4.00000000000   -3.25401964873   -4.44164030394   -4.52611107891
|749> NewECP
|750> N_core 0
|751>   lmax f
|752>   s 2
|753>    1      0.860000       9.191690  2
|754>    2      0.172000       0.008301  2
|755>   p 2
|756>    1      0.860000      17.997720  2
|757>    2      0.172000      -0.032600  2
|758>   d 2
|759>    1      1.600000      -9.504310  2
|760>    2      0.320000      -0.151370  2
|761>   f 1
|762>    1      1.000000000    0.000000000 2
|763> end
|764> Ti>    4.00000000000   -6.50803929747    2.96109353596    1.98192821856
|765> NewECP
|766> N_core 0
|767>   lmax f
|768>   s 2
|769>    1      0.860000       9.191690  2
|770>    2      0.172000       0.008301  2
|771>   p 2
|772>    1      0.860000      17.997720  2
|773>    2      0.172000      -0.032600  2
|774>   d 2
|775>    1      1.600000      -9.504310  2
|776>    2      0.320000      -0.151370  2
|777>   f 1
|778>    1      1.000000000    0.000000000 2
|779> end
|780> Ti>    4.00000000000    6.50803929747    2.96109353596    1.98192821856
|781> NewECP
|782> N_core 0
|783>   lmax f
|784>   s 2
|785>    1      0.860000       9.191690  2
|786>    2      0.172000       0.008301  2
|787>   p 2
|788>    1      0.860000      17.997720  2
|789>    2      0.172000      -0.032600  2
|790>   d 2
|791>    1      1.600000      -9.504310  2
|792>    2      0.320000      -0.151370  2
|793>   f 1
|794>    1      1.000000000    0.000000000 2
|795> end
|796> Ti>    4.00000000000    6.50803929747   -2.96109353596    1.98192821856
|797> NewECP
|798> N_core 0
|799>   lmax f
|800>   s 2
|801>    1      0.860000       9.191690  2
|802>    2      0.172000       0.008301  2
|803>   p 2
|804>    1      0.860000      17.997720  2
|805>    2      0.172000      -0.032600  2
|806>   d 2
|807>    1      1.600000      -9.504310  2
|808>    2      0.320000      -0.151370  2
|809>   f 1
|810>    1      1.000000000    0.000000000 2
|811> end
|812> Ti>    4.00000000000   -6.50803929747   -2.96109353596    1.98192821856
|813> NewECP
|814> N_core 0
|815>   lmax f
|816>   s 2
|817>    1      0.860000       9.191690  2
|818>    2      0.172000       0.008301  2
|819>   p 2
|820>    1      0.860000      17.997720  2
|821>    2      0.172000      -0.032600  2
|822>   d 2
|823>    1      1.600000      -9.504310  2
|824>    2      0.320000      -0.151370  2
|825>   f 1
|826>    1      1.000000000    0.000000000 2
|827> end
|828> Ti>    4.00000000000    0.00000000000    5.92218707193   -4.52611107891
|829> NewECP
|830> N_core 0
|831>   lmax f
|832>   s 2
|833>    1      0.860000       9.191690  2
|834>    2      0.172000       0.008301  2
|835>   p 2
|836>    1      0.860000      17.997720  2
|837>    2      0.172000      -0.032600  2
|838>   d 2
|839>    1      1.600000      -9.504310  2
|840>    2      0.320000      -0.151370  2
|841>   f 1
|842>    1      1.000000000    0.000000000 2
|843> end
|844> Ti>    4.00000000000    0.00000000000   -5.92218707193   -4.52611107891
|845> NewECP
|846> N_core 0
|847>   lmax f
|848>   s 2
|849>    1      0.860000       9.191690  2
|850>    2      0.172000       0.008301  2
|851>   p 2
|852>    1      0.860000      17.997720  2
|853>    2      0.172000      -0.032600  2
|854>   d 2
|855>    1      1.600000      -9.504310  2
|856>    2      0.320000      -0.151370  2
|857>   f 1
|858>    1      1.000000000    0.000000000 2
|859> end
|860> Ti>    4.00000000000    0.00000000000    7.40273383991   -1.27209143018
|861> NewECP
|862> N_core 0
|863>   lmax f
|864>   s 2
|865>    1      0.860000       9.191690  2
|866>    2      0.172000       0.008301  2
|867>   p 2
|868>    1      0.860000      17.997720  2
|869>    2      0.172000      -0.032600  2
|870>   d 2
|871>    1      1.600000      -9.504310  2
|872>    2      0.320000      -0.151370  2
|873>   f 1
|874>    1      1.000000000    0.000000000 2
|875> end
|876> Ti>    4.00000000000    0.00000000000   -7.40273383991   -1.27209143018
|877> NewECP
|878> N_core 0
|879>   lmax f
|880>   s 2
|881>    1      0.860000       9.191690  2
|882>    2      0.172000       0.008301  2
|883>   p 2
|884>    1      0.860000      17.997720  2
|885>    2      0.172000      -0.032600  2
|886>   d 2
|887>    1      1.600000      -9.504310  2
|888>    2      0.320000      -0.151370  2
|889>   f 1
|890>    1      1.000000000    0.000000000 2
|891> end
|892> Ti>    4.00000000000    0.00000000000    1.48054676798   -7.78013072764
|893> NewECP
|894> N_core 0
|895>   lmax f
|896>   s 2
|897>    1      0.860000       9.191690  2
|898>    2      0.172000       0.008301  2
|899>   p 2
|900>    1      0.860000      17.997720  2
|901>    2      0.172000      -0.032600  2
|902>   d 2
|903>    1      1.600000      -9.504310  2
|904>    2      0.320000      -0.151370  2
|905>   f 1
|906>    1      1.000000000    0.000000000 2
|907> end
|908> Ti>    4.00000000000    0.00000000000   -1.48054676798   -7.78013072764
|909> NewECP
|910> N_core 0
|911>   lmax f
|912>   s 2
|913>    1      0.860000       9.191690  2
|914>    2      0.172000       0.008301  2
|915>   p 2
|916>    1      0.860000      17.997720  2
|917>    2      0.172000      -0.032600  2
|918>   d 2
|919>    1      1.600000      -9.504310  2
|920>    2      0.320000      -0.151370  2
|921>   f 1
|922>    1      1.000000000    0.000000000 2
|923> end
|924> Ti>    4.00000000000   -6.50803929747    0.00000000000   -4.52611107891
|925> NewECP
|926> N_core 0
|927>   lmax f
|928>   s 2
|929>    1      0.860000       9.191690  2
|930>    2      0.172000       0.008301  2
|931>   p 2
|932>    1      0.860000      17.997720  2
|933>    2      0.172000      -0.032600  2
|934>   d 2
|935>    1      1.600000      -9.504310  2
|936>    2      0.320000      -0.151370  2
|937>   f 1
|938>    1      1.000000000    0.000000000 2
|939> end
|940> Ti>    4.00000000000    6.50803929747    0.00000000000   -4.52611107891
|941> NewECP
|942> N_core 0
|943>   lmax f
|944>   s 2
|945>    1      0.860000       9.191690  2
|946>    2      0.172000       0.008301  2
|947>   p 2
|948>    1      0.860000      17.997720  2
|949>    2      0.172000      -0.032600  2
|950>   d 2
|951>    1      1.600000      -9.504310  2
|952>    2      0.320000      -0.151370  2
|953>   f 1
|954>    1      1.000000000    0.000000000 2
|955> end
|956> Ti>    4.00000000000   -6.50803929747    4.44164030394   -1.27209143018
|957> NewECP
|958> N_core 0
|959>   lmax f
|960>   s 2
|961>    1      0.860000       9.191690  2
|962>    2      0.172000       0.008301  2
|963>   p 2
|964>    1      0.860000      17.997720  2
|965>    2      0.172000      -0.032600  2
|966>   d 2
|967>    1      1.600000      -9.504310  2
|968>    2      0.320000      -0.151370  2
|969>   f 1
|970>    1      1.000000000    0.000000000 2
|971> end
|972> Ti>    4.00000000000    6.50803929747    4.44164030394   -1.27209143018
|973> NewECP
|974> N_core 0
|975>   lmax f
|976>   s 2
|977>    1      0.860000       9.191690  2
|978>    2      0.172000       0.008301  2
|979>   p 2
|980>    1      0.860000      17.997720  2
|981>    2      0.172000      -0.032600  2
|982>   d 2
|983>    1      1.600000      -9.504310  2
|984>    2      0.320000      -0.151370  2
|985>   f 1
|986>    1      1.000000000    0.000000000 2
|987> end
|988> Ti>    4.00000000000    6.50803929747   -4.44164030394   -1.27209143018
|989> NewECP
|990> N_core 0
|991>   lmax f
|992>   s 2
|993>    1      0.860000       9.191690  2
|994>    2      0.172000       0.008301  2
|995>   p 2
|996>    1      0.860000      17.997720  2
|997>    2      0.172000      -0.032600  2
|998>   d 2
|999>    1      1.600000      -9.504310  2
|1000>    2      0.320000      -0.151370  2
|1001>   f 1
|1002>    1      1.000000000    0.000000000 2
|1003> end
|1004> Ti>    4.00000000000   -6.50803929747   -4.44164030394   -1.27209143018
|1005> NewECP
|1006> N_core 0
|1007>   lmax f
|1008>   s 2
|1009>    1      0.860000       9.191690  2
|1010>    2      0.172000       0.008301  2
|1011>   p 2
|1012>    1      0.860000      17.997720  2
|1013>    2      0.172000      -0.032600  2
|1014>   d 2
|1015>    1      1.600000      -9.504310  2
|1016>    2      0.320000      -0.151370  2
|1017>   f 1
|1018>    1      1.000000000    0.000000000 2
|1019> end
|1020> Ti>    4.00000000000   -3.25401964873    7.40273383991    1.98192821856
|1021> NewECP
|1022> N_core 0
|1023>   lmax f
|1024>   s 2
|1025>    1      0.860000       9.191690  2
|1026>    2      0.172000       0.008301  2
|1027>   p 2
|1028>    1      0.860000      17.997720  2
|1029>    2      0.172000      -0.032600  2
|1030>   d 2
|1031>    1      1.600000      -9.504310  2
|1032>    2      0.320000      -0.151370  2
|1033>   f 1
|1034>    1      1.000000000    0.000000000 2
|1035> end
|1036> Ti>    4.00000000000    3.25401964873    7.40273383991    1.98192821856
|1037> NewECP
|1038> N_core 0
|1039>   lmax f
|1040>   s 2
|1041>    1      0.860000       9.191690  2
|1042>    2      0.172000       0.008301  2
|1043>   p 2
|1044>    1      0.860000      17.997720  2
|1045>    2      0.172000      -0.032600  2
|1046>   d 2
|1047>    1      1.600000      -9.504310  2
|1048>    2      0.320000      -0.151370  2
|1049>   f 1
|1050>    1      1.000000000    0.000000000 2
|1051> end
|1052> Ti>    4.00000000000    3.25401964873   -7.40273383991    1.98192821856
|1053> NewECP
|1054> N_core 0
|1055>   lmax f
|1056>   s 2
|1057>    1      0.860000       9.191690  2
|1058>    2      0.172000       0.008301  2
|1059>   p 2
|1060>    1      0.860000      17.997720  2
|1061>    2      0.172000      -0.032600  2
|1062>   d 2
|1063>    1      1.600000      -9.504310  2
|1064>    2      0.320000      -0.151370  2
|1065>   f 1
|1066>    1      1.000000000    0.000000000 2
|1067> end
|1068> Ti>    4.00000000000   -3.25401964873   -7.40273383991    1.98192821856
|1069> NewECP
|1070> N_core 0
|1071>   lmax f
|1072>   s 2
|1073>    1      0.860000       9.191690  2
|1074>    2      0.172000       0.008301  2
|1075>   p 2
|1076>    1      0.860000      17.997720  2
|1077>    2      0.172000      -0.032600  2
|1078>   d 2
|1079>    1      1.600000      -9.504310  2
|1080>    2      0.320000      -0.151370  2
|1081>   f 1
|1082>    1      1.000000000    0.000000000 2
|1083> end
|1084> Ti>    4.00000000000   -3.25401964873    0.00000000000   -7.78013072764
|1085> NewECP
|1086> N_core 0
|1087>   lmax f
|1088>   s 2
|1089>    1      0.860000       9.191690  2
|1090>    2      0.172000       0.008301  2
|1091>   p 2
|1092>    1      0.860000      17.997720  2
|1093>    2      0.172000      -0.032600  2
|1094>   d 2
|1095>    1      1.600000      -9.504310  2
|1096>    2      0.320000      -0.151370  2
|1097>   f 1
|1098>    1      1.000000000    0.000000000 2
|1099> end
|1100> Ti>    4.00000000000    3.25401964873    0.00000000000   -7.78013072764
|1101> NewECP
|1102> N_core 0
|1103>   lmax f
|1104>   s 2
|1105>    1      0.860000       9.191690  2
|1106>    2      0.172000       0.008301  2
|1107>   p 2
|1108>    1      0.860000      17.997720  2
|1109>    2      0.172000      -0.032600  2
|1110>   d 2
|1111>    1      1.600000      -9.504310  2
|1112>    2      0.320000      -0.151370  2
|1113>   f 1
|1114>    1      1.000000000    0.000000000 2
|1115> end
|1116> Ti>    4.00000000000   -6.50803929747    2.96109353596   -4.52611107891
|1117> NewECP
|1118> N_core 0
|1119>   lmax f
|1120>   s 2
|1121>    1      0.860000       9.191690  2
|1122>    2      0.172000       0.008301  2
|1123>   p 2
|1124>    1      0.860000      17.997720  2
|1125>    2      0.172000      -0.032600  2
|1126>   d 2
|1127>    1      1.600000      -9.504310  2
|1128>    2      0.320000      -0.151370  2
|1129>   f 1
|1130>    1      1.000000000    0.000000000 2
|1131> end
|1132> Ti>    4.00000000000    6.50803929747    2.96109353596   -4.52611107891
|1133> NewECP
|1134> N_core 0
|1135>   lmax f
|1136>   s 2
|1137>    1      0.860000       9.191690  2
|1138>    2      0.172000       0.008301  2
|1139>   p 2
|1140>    1      0.860000      17.997720  2
|1141>    2      0.172000      -0.032600  2
|1142>   d 2
|1143>    1      1.600000      -9.504310  2
|1144>    2      0.320000      -0.151370  2
|1145>   f 1
|1146>    1      1.000000000    0.000000000 2
|1147> end
|1148> Ti>    4.00000000000    6.50803929747   -2.96109353596   -4.52611107891
|1149> NewECP
|1150> N_core 0
|1151>   lmax f
|1152>   s 2
|1153>    1      0.860000       9.191690  2
|1154>    2      0.172000       0.008301  2
|1155>   p 2
|1156>    1      0.860000      17.997720  2
|1157>    2      0.172000      -0.032600  2
|1158>   d 2
|1159>    1      1.600000      -9.504310  2
|1160>    2      0.320000      -0.151370  2
|1161>   f 1
|1162>    1      1.000000000    0.000000000 2
|1163> end
|1164> Ti>    4.00000000000   -6.50803929747   -2.96109353596   -4.52611107891
|1165> NewECP
|1166> N_core 0
|1167>   lmax f
|1168>   s 2
|1169>    1      0.860000       9.191690  2
|1170>    2      0.172000       0.008301  2
|1171>   p 2
|1172>    1      0.860000      17.997720  2
|1173>    2      0.172000      -0.032600  2
|1174>   d 2
|1175>    1      1.600000      -9.504310  2
|1176>    2      0.320000      -0.151370  2
|1177>   f 1
|1178>    1      1.000000000    0.000000000 2
|1179> end
|1180> Ti>    4.00000000000   -6.50803929747    1.48054676798    5.23594786729
|1181> NewECP
|1182> N_core 0
|1183>   lmax f
|1184>   s 2
|1185>    1      0.860000       9.191690  2
|1186>    2      0.172000       0.008301  2
|1187>   p 2
|1188>    1      0.860000      17.997720  2
|1189>    2      0.172000      -0.032600  2
|1190>   d 2
|1191>    1      1.600000      -9.504310  2
|1192>    2      0.320000      -0.151370  2
|1193>   f 1
|1194>    1      1.000000000    0.000000000 2
|1195> end
|1196> Ti>    4.00000000000    6.50803929747    1.48054676798    5.23594786729
|1197> NewECP
|1198> N_core 0
|1199>   lmax f
|1200>   s 2
|1201>    1      0.860000       9.191690  2
|1202>    2      0.172000       0.008301  2
|1203>   p 2
|1204>    1      0.860000      17.997720  2
|1205>    2      0.172000      -0.032600  2
|1206>   d 2
|1207>    1      1.600000      -9.504310  2
|1208>    2      0.320000      -0.151370  2
|1209>   f 1
|1210>    1      1.000000000    0.000000000 2
|1211> end
|1212> Ti>    4.00000000000    6.50803929747   -1.48054676798    5.23594786729
|1213> NewECP
|1214> N_core 0
|1215>   lmax f
|1216>   s 2
|1217>    1      0.860000       9.191690  2
|1218>    2      0.172000       0.008301  2
|1219>   p 2
|1220>    1      0.860000      17.997720  2
|1221>    2      0.172000      -0.032600  2
|1222>   d 2
|1223>    1      1.600000      -9.504310  2
|1224>    2      0.320000      -0.151370  2
|1225>   f 1
|1226>    1      1.000000000    0.000000000 2
|1227> end
|1228> Ti>    4.00000000000   -6.50803929747   -1.48054676798    5.23594786729
|1229> NewECP
|1230> N_core 0
|1231>   lmax f
|1232>   s 2
|1233>    1      0.860000       9.191690  2
|1234>    2      0.172000       0.008301  2
|1235>   p 2
|1236>    1      0.860000      17.997720  2
|1237>    2      0.172000      -0.032600  2
|1238>   d 2
|1239>    1      1.600000      -9.504310  2
|1240>    2      0.320000      -0.151370  2
|1241>   f 1
|1242>    1      1.000000000    0.000000000 2
|1243> end
|1244> Ti>    4.00000000000    0.00000000000    0.00000000000    8.48996751602
|1245> NewECP
|1246> N_core 0
|1247>   lmax f
|1248>   s 2
|1249>    1      0.860000       9.191690  2
|1250>    2      0.172000       0.008301  2
|1251>   p 2
|1252>    1      0.860000      17.997720  2
|1253>    2      0.172000      -0.032600  2
|1254>   d 2
|1255>    1      1.600000      -9.504310  2
|1256>    2      0.320000      -0.151370  2
|1257>   f 1
|1258>    1      1.000000000    0.000000000 2
|1259> end
|1260> Ti>    4.00000000000   -3.25401964873    5.92218707193    5.23594786729
|1261> NewECP
|1262> N_core 0
|1263>   lmax f
|1264>   s 2
|1265>    1      0.860000       9.191690  2
|1266>    2      0.172000       0.008301  2
|1267>   p 2
|1268>    1      0.860000      17.997720  2
|1269>    2      0.172000      -0.032600  2
|1270>   d 2
|1271>    1      1.600000      -9.504310  2
|1272>    2      0.320000      -0.151370  2
|1273>   f 1
|1274>    1      1.000000000    0.000000000 2
|1275> end
|1276> Ti>    4.00000000000    3.25401964873    5.92218707193    5.23594786729
|1277> NewECP
|1278> N_core 0
|1279>   lmax f
|1280>   s 2
|1281>    1      0.860000       9.191690  2
|1282>    2      0.172000       0.008301  2
|1283>   p 2
|1284>    1      0.860000      17.997720  2
|1285>    2      0.172000      -0.032600  2
|1286>   d 2
|1287>    1      1.600000      -9.504310  2
|1288>    2      0.320000      -0.151370  2
|1289>   f 1
|1290>    1      1.000000000    0.000000000 2
|1291> end
|1292> Ti>    4.00000000000    3.25401964873   -5.92218707193    5.23594786729
|1293> NewECP
|1294> N_core 0
|1295>   lmax f
|1296>   s 2
|1297>    1      0.860000       9.191690  2
|1298>    2      0.172000       0.008301  2
|1299>   p 2
|1300>    1      0.860000      17.997720  2
|1301>    2      0.172000      -0.032600  2
|1302>   d 2
|1303>    1      1.600000      -9.504310  2
|1304>    2      0.320000      -0.151370  2
|1305>   f 1
|1306>    1      1.000000000    0.000000000 2
|1307> end
|1308> Ti>    4.00000000000   -3.25401964873   -5.92218707193    5.23594786729
|1309> NewECP
|1310> N_core 0
|1311>   lmax f
|1312>   s 2
|1313>    1      0.860000       9.191690  2
|1314>    2      0.172000       0.008301  2
|1315>   p 2
|1316>    1      0.860000      17.997720  2
|1317>    2      0.172000      -0.032600  2
|1318>   d 2
|1319>    1      1.600000      -9.504310  2
|1320>    2      0.320000      -0.151370  2
|1321>   f 1
|1322>    1      1.000000000    0.000000000 2
|1323> end
|1324> Ti>    4.00000000000   -3.25401964873    2.96109353596   -7.78013072764
|1325> NewECP
|1326> N_core 0
|1327>   lmax f
|1328>   s 2
|1329>    1      0.860000       9.191690  2
|1330>    2      0.172000       0.008301  2
|1331>   p 2
|1332>    1      0.860000      17.997720  2
|1333>    2      0.172000      -0.032600  2
|1334>   d 2
|1335>    1      1.600000      -9.504310  2
|1336>    2      0.320000      -0.151370  2
|1337>   f 1
|1338>    1      1.000000000    0.000000000 2
|1339> end
|1340> Ti>    4.00000000000    3.25401964873    2.96109353596   -7.78013072764
|1341> NewECP
|1342> N_core 0
|1343>   lmax f
|1344>   s 2
|1345>    1      0.860000       9.191690  2
|1346>    2      0.172000       0.008301  2
|1347>   p 2
|1348>    1      0.860000      17.997720  2
|1349>    2      0.172000      -0.032600  2
|1350>   d 2
|1351>    1      1.600000      -9.504310  2
|1352>    2      0.320000      -0.151370  2
|1353>   f 1
|1354>    1      1.000000000    0.000000000 2
|1355> end
|1356> Ti>    4.00000000000    3.25401964873   -2.96109353596   -7.78013072764
|1357> NewECP
|1358> N_core 0
|1359>   lmax f
|1360>   s 2
|1361>    1      0.860000       9.191690  2
|1362>    2      0.172000       0.008301  2
|1363>   p 2
|1364>    1      0.860000      17.997720  2
|1365>    2      0.172000      -0.032600  2
|1366>   d 2
|1367>    1      1.600000      -9.504310  2
|1368>    2      0.320000      -0.151370  2
|1369>   f 1
|1370>    1      1.000000000    0.000000000 2
|1371> end
|1372> Ti>    4.00000000000   -3.25401964873   -2.96109353596   -7.78013072764
|1373> NewECP
|1374> N_core 0
|1375>   lmax f
|1376>   s 2
|1377>    1      0.860000       9.191690  2
|1378>    2      0.172000       0.008301  2
|1379>   p 2
|1380>    1      0.860000      17.997720  2
|1381>    2      0.172000      -0.032600  2
|1382>   d 2
|1383>    1      1.600000      -9.504310  2
|1384>    2      0.320000      -0.151370  2
|1385>   f 1
|1386>    1      1.000000000    0.000000000 2
|1387> end
|1388> Ti>    4.00000000000    0.00000000000    4.44164030394   -7.78013072764
|1389> NewECP
|1390> N_core 0
|1391>   lmax f
|1392>   s 2
|1393>    1      0.860000       9.191690  2
|1394>    2      0.172000       0.008301  2
|1395>   p 2
|1396>    1      0.860000      17.997720  2
|1397>    2      0.172000      -0.032600  2
|1398>   d 2
|1399>    1      1.600000      -9.504310  2
|1400>    2      0.320000      -0.151370  2
|1401>   f 1
|1402>    1      1.000000000    0.000000000 2
|1403> end
|1404> Ti>    4.00000000000    0.00000000000   -4.44164030394   -7.78013072764
|1405> NewECP
|1406> N_core 0
|1407>   lmax f
|1408>   s 2
|1409>    1      0.860000       9.191690  2
|1410>    2      0.172000       0.008301  2
|1411>   p 2
|1412>    1      0.860000      17.997720  2
|1413>    2      0.172000      -0.032600  2
|1414>   d 2
|1415>    1      1.600000      -9.504310  2
|1416>    2      0.320000      -0.151370  2
|1417>   f 1
|1418>    1      1.000000000    0.000000000 2
|1419> end
|1420> Ti>    4.00000000000    0.00000000000    2.96109353596    8.48996751602
|1421> NewECP
|1422> N_core 0
|1423>   lmax f
|1424>   s 2
|1425>    1      0.860000       9.191690  2
|1426>    2      0.172000       0.008301  2
|1427>   p 2
|1428>    1      0.860000      17.997720  2
|1429>    2      0.172000      -0.032600  2
|1430>   d 2
|1431>    1      1.600000      -9.504310  2
|1432>    2      0.320000      -0.151370  2
|1433>   f 1
|1434>    1      1.000000000    0.000000000 2
|1435> end
|1436> Ti>    4.00000000000    0.00000000000   -2.96109353596    8.48996751602
|1437> NewECP
|1438> N_core 0
|1439>   lmax f
|1440>   s 2
|1441>    1      0.860000       9.191690  2
|1442>    2      0.172000       0.008301  2
|1443>   p 2
|1444>    1      0.860000      17.997720  2
|1445>    2      0.172000      -0.032600  2
|1446>   d 2
|1447>    1      1.600000      -9.504310  2
|1448>    2      0.320000      -0.151370  2
|1449>   f 1
|1450>    1      1.000000000    0.000000000 2
|1451> end
|1452> Ti>    4.00000000000   -6.50803929747    5.92218707193    1.98192821856
|1453> NewECP
|1454> N_core 0
|1455>   lmax f
|1456>   s 2
|1457>    1      0.860000       9.191690  2
|1458>    2      0.172000       0.008301  2
|1459>   p 2
|1460>    1      0.860000      17.997720  2
|1461>    2      0.172000      -0.032600  2
|1462>   d 2
|1463>    1      1.600000      -9.504310  2
|1464>    2      0.320000      -0.151370  2
|1465>   f 1
|1466>    1      1.000000000    0.000000000 2
|1467> end
|1468> Ti>    4.00000000000    6.50803929747    5.92218707193    1.98192821856
|1469> NewECP
|1470> N_core 0
|1471>   lmax f
|1472>   s 2
|1473>    1      0.860000       9.191690  2
|1474>    2      0.172000       0.008301  2
|1475>   p 2
|1476>    1      0.860000      17.997720  2
|1477>    2      0.172000      -0.032600  2
|1478>   d 2
|1479>    1      1.600000      -9.504310  2
|1480>    2      0.320000      -0.151370  2
|1481>   f 1
|1482>    1      1.000000000    0.000000000 2
|1483> end
|1484> Ti>    4.00000000000    6.50803929747   -5.92218707193    1.98192821856
|1485> NewECP
|1486> N_core 0
|1487>   lmax f
|1488>   s 2
|1489>    1      0.860000       9.191690  2
|1490>    2      0.172000       0.008301  2
|1491>   p 2
|1492>    1      0.860000      17.997720  2
|1493>    2      0.172000      -0.032600  2
|1494>   d 2
|1495>    1      1.600000      -9.504310  2
|1496>    2      0.320000      -0.151370  2
|1497>   f 1
|1498>    1      1.000000000    0.000000000 2
|1499> end
|1500> Ti>    4.00000000000   -6.50803929747   -5.92218707193    1.98192821856
|1501> NewECP
|1502> N_core 0
|1503>   lmax f
|1504>   s 2
|1505>    1      0.860000       9.191690  2
|1506>    2      0.172000       0.008301  2
|1507>   p 2
|1508>    1      0.860000      17.997720  2
|1509>    2      0.172000      -0.032600  2
|1510>   d 2
|1511>    1      1.600000      -9.504310  2
|1512>    2      0.320000      -0.151370  2
|1513>   f 1
|1514>    1      1.000000000    0.000000000 2
|1515> end
|1516> Ti>    4.00000000000    0.00000000000    7.40273383991    5.23594786729
|1517> NewECP
|1518> N_core 0
|1519>   lmax f
|1520>   s 2
|1521>    1      0.860000       9.191690  2
|1522>    2      0.172000       0.008301  2
|1523>   p 2
|1524>    1      0.860000      17.997720  2
|1525>    2      0.172000      -0.032600  2
|1526>   d 2
|1527>    1      1.600000      -9.504310  2
|1528>    2      0.320000      -0.151370  2
|1529>   f 1
|1530>    1      1.000000000    0.000000000 2
|1531> end
|1532> Ti>    4.00000000000    0.00000000000   -7.40273383991    5.23594786729
|1533> NewECP
|1534> N_core 0
|1535>   lmax f
|1536>   s 2
|1537>    1      0.860000       9.191690  2
|1538>    2      0.172000       0.008301  2
|1539>   p 2
|1540>    1      0.860000      17.997720  2
|1541>    2      0.172000      -0.032600  2
|1542>   d 2
|1543>    1      1.600000      -9.504310  2
|1544>    2      0.320000      -0.151370  2
|1545>   f 1
|1546>    1      1.000000000    0.000000000 2
|1547> end
|1548> Ti>    4.00000000000    0.00000000000    8.88328060789    1.98192821856
|1549> NewECP
|1550> N_core 0
|1551>   lmax f
|1552>   s 2
|1553>    1      0.860000       9.191690  2
|1554>    2      0.172000       0.008301  2
|1555>   p 2
|1556>    1      0.860000      17.997720  2
|1557>    2      0.172000      -0.032600  2
|1558>   d 2
|1559>    1      1.600000      -9.504310  2
|1560>    2      0.320000      -0.151370  2
|1561>   f 1
|1562>    1      1.000000000    0.000000000 2
|1563> end
|1564> Ti>    4.00000000000    0.00000000000   -8.88328060789    1.98192821856
|1565> NewECP
|1566> N_core 0
|1567>   lmax f
|1568>   s 2
|1569>    1      0.860000       9.191690  2
|1570>    2      0.172000       0.008301  2
|1571>   p 2
|1572>    1      0.860000      17.997720  2
|1573>    2      0.172000      -0.032600  2
|1574>   d 2
|1575>    1      1.600000      -9.504310  2
|1576>    2      0.320000      -0.151370  2
|1577>   f 1
|1578>    1      1.000000000    0.000000000 2
|1579> end
|1580> Ti>    4.00000000000   -3.25401964873    1.48054676798    8.48996751602
|1581> NewECP
|1582> N_core 0
|1583>   lmax f
|1584>   s 2
|1585>    1      0.860000       9.191690  2
|1586>    2      0.172000       0.008301  2
|1587>   p 2
|1588>    1      0.860000      17.997720  2
|1589>    2      0.172000      -0.032600  2
|1590>   d 2
|1591>    1      1.600000      -9.504310  2
|1592>    2      0.320000      -0.151370  2
|1593>   f 1
|1594>    1      1.000000000    0.000000000 2
|1595> end
|1596> Ti>    4.00000000000    3.25401964873    1.48054676798    8.48996751602
|1597> NewECP
|1598> N_core 0
|1599>   lmax f
|1600>   s 2
|1601>    1      0.860000       9.191690  2
|1602>    2      0.172000       0.008301  2
|1603>   p 2
|1604>    1      0.860000      17.997720  2
|1605>    2      0.172000      -0.032600  2
|1606>   d 2
|1607>    1      1.600000      -9.504310  2
|1608>    2      0.320000      -0.151370  2
|1609>   f 1
|1610>    1      1.000000000    0.000000000 2
|1611> end
|1612> Ti>    4.00000000000    3.25401964873   -1.48054676798    8.48996751602
|1613> NewECP
|1614> N_core 0
|1615>   lmax f
|1616>   s 2
|1617>    1      0.860000       9.191690  2
|1618>    2      0.172000       0.008301  2
|1619>   p 2
|1620>    1      0.860000      17.997720  2
|1621>    2      0.172000      -0.032600  2
|1622>   d 2
|1623>    1      1.600000      -9.504310  2
|1624>    2      0.320000      -0.151370  2
|1625>   f 1
|1626>    1      1.000000000    0.000000000 2
|1627> end
|1628> Ti>    4.00000000000   -3.25401964873   -1.48054676798    8.48996751602
|1629> NewECP
|1630> N_core 0
|1631>   lmax f
|1632>   s 2
|1633>    1      0.860000       9.191690  2
|1634>    2      0.172000       0.008301  2
|1635>   p 2
|1636>    1      0.860000      17.997720  2
|1637>    2      0.172000      -0.032600  2
|1638>   d 2
|1639>    1      1.600000      -9.504310  2
|1640>    2      0.320000      -0.151370  2
|1641>   f 1
|1642>    1      1.000000000    0.000000000 2
|1643> end
|1644> Ti>    4.00000000000   -3.25401964873    7.40273383991   -4.52611107891
|1645> NewECP
|1646> N_core 0
|1647>   lmax f
|1648>   s 2
|1649>    1      0.860000       9.191690  2
|1650>    2      0.172000       0.008301  2
|1651>   p 2
|1652>    1      0.860000      17.997720  2
|1653>    2      0.172000      -0.032600  2
|1654>   d 2
|1655>    1      1.600000      -9.504310  2
|1656>    2      0.320000      -0.151370  2
|1657>   f 1
|1658>    1      1.000000000    0.000000000 2
|1659> end
|1660> Ti>    4.00000000000    3.25401964873    7.40273383991   -4.52611107891
|1661> NewECP
|1662> N_core 0
|1663>   lmax f
|1664>   s 2
|1665>    1      0.860000       9.191690  2
|1666>    2      0.172000       0.008301  2
|1667>   p 2
|1668>    1      0.860000      17.997720  2
|1669>    2      0.172000      -0.032600  2
|1670>   d 2
|1671>    1      1.600000      -9.504310  2
|1672>    2      0.320000      -0.151370  2
|1673>   f 1
|1674>    1      1.000000000    0.000000000 2
|1675> end
|1676> Ti>    4.00000000000    3.25401964873   -7.40273383991   -4.52611107891
|1677> NewECP
|1678> N_core 0
|1679>   lmax f
|1680>   s 2
|1681>    1      0.860000       9.191690  2
|1682>    2      0.172000       0.008301  2
|1683>   p 2
|1684>    1      0.860000      17.997720  2
|1685>    2      0.172000      -0.032600  2
|1686>   d 2
|1687>    1      1.600000      -9.504310  2
|1688>    2      0.320000      -0.151370  2
|1689>   f 1
|1690>    1      1.000000000    0.000000000 2
|1691> end
|1692> Ti>    4.00000000000   -3.25401964873   -7.40273383991   -4.52611107891
|1693> NewECP
|1694> N_core 0
|1695>   lmax f
|1696>   s 2
|1697>    1      0.860000       9.191690  2
|1698>    2      0.172000       0.008301  2
|1699>   p 2
|1700>    1      0.860000      17.997720  2
|1701>    2      0.172000      -0.032600  2
|1702>   d 2
|1703>    1      1.600000      -9.504310  2
|1704>    2      0.320000      -0.151370  2
|1705>   f 1
|1706>    1      1.000000000    0.000000000 2
|1707> end
|1708> Ti>    4.00000000000   -6.50803929747    4.44164030394    5.23594786729
|1709> NewECP
|1710> N_core 0
|1711>   lmax f
|1712>   s 2
|1713>    1      0.860000       9.191690  2
|1714>    2      0.172000       0.008301  2
|1715>   p 2
|1716>    1      0.860000      17.997720  2
|1717>    2      0.172000      -0.032600  2
|1718>   d 2
|1719>    1      1.600000      -9.504310  2
|1720>    2      0.320000      -0.151370  2
|1721>   f 1
|1722>    1      1.000000000    0.000000000 2
|1723> end
|1724> Ti>    4.00000000000    6.50803929747    4.44164030394    5.23594786729
|1725> NewECP
|1726> N_core 0
|1727>   lmax f
|1728>   s 2
|1729>    1      0.860000       9.191690  2
|1730>    2      0.172000       0.008301  2
|1731>   p 2
|1732>    1      0.860000      17.997720  2
|1733>    2      0.172000      -0.032600  2
|1734>   d 2
|1735>    1      1.600000      -9.504310  2
|1736>    2      0.320000      -0.151370  2
|1737>   f 1
|1738>    1      1.000000000    0.000000000 2
|1739> end
|1740> Ti>    4.00000000000    6.50803929747   -4.44164030394    5.23594786729
|1741> NewECP
|1742> N_core 0
|1743>   lmax f
|1744>   s 2
|1745>    1      0.860000       9.191690  2
|1746>    2      0.172000       0.008301  2
|1747>   p 2
|1748>    1      0.860000      17.997720  2
|1749>    2      0.172000      -0.032600  2
|1750>   d 2
|1751>    1      1.600000      -9.504310  2
|1752>    2      0.320000      -0.151370  2
|1753>   f 1
|1754>    1      1.000000000    0.000000000 2
|1755> end
|1756> Ti>    4.00000000000   -6.50803929747   -4.44164030394    5.23594786729
|1757> NewECP
|1758> N_core 0
|1759>   lmax f
|1760>   s 2
|1761>    1      0.860000       9.191690  2
|1762>    2      0.172000       0.008301  2
|1763>   p 2
|1764>    1      0.860000      17.997720  2
|1765>    2      0.172000      -0.032600  2
|1766>   d 2
|1767>    1      1.600000      -9.504310  2
|1768>    2      0.320000      -0.151370  2
|1769>   f 1
|1770>    1      1.000000000    0.000000000 2
|1771> end
|1772> Ti>    4.00000000000   -3.25401964873    8.88328060789   -1.27209143018
|1773> NewECP
|1774> N_core 0
|1775>   lmax f
|1776>   s 2
|1777>    1      0.860000       9.191690  2
|1778>    2      0.172000       0.008301  2
|1779>   p 2
|1780>    1      0.860000      17.997720  2
|1781>    2      0.172000      -0.032600  2
|1782>   d 2
|1783>    1      1.600000      -9.504310  2
|1784>    2      0.320000      -0.151370  2
|1785>   f 1
|1786>    1      1.000000000    0.000000000 2
|1787> end
|1788> Ti>    4.00000000000    3.25401964873    8.88328060789   -1.27209143018
|1789> NewECP
|1790> N_core 0
|1791>   lmax f
|1792>   s 2
|1793>    1      0.860000       9.191690  2
|1794>    2      0.172000       0.008301  2
|1795>   p 2
|1796>    1      0.860000      17.997720  2
|1797>    2      0.172000      -0.032600  2
|1798>   d 2
|1799>    1      1.600000      -9.504310  2
|1800>    2      0.320000      -0.151370  2
|1801>   f 1
|1802>    1      1.000000000    0.000000000 2
|1803> end
|1804> Ti>    4.00000000000    3.25401964873   -8.88328060789   -1.27209143018
|1805> NewECP
|1806> N_core 0
|1807>   lmax f
|1808>   s 2
|1809>    1      0.860000       9.191690  2
|1810>    2      0.172000       0.008301  2
|1811>   p 2
|1812>    1      0.860000      17.997720  2
|1813>    2      0.172000      -0.032600  2
|1814>   d 2
|1815>    1      1.600000      -9.504310  2
|1816>    2      0.320000      -0.151370  2
|1817>   f 1
|1818>    1      1.000000000    0.000000000 2
|1819> end
|1820> Ti>    4.00000000000   -3.25401964873   -8.88328060789   -1.27209143018
|1821> NewECP
|1822> N_core 0
|1823>   lmax f
|1824>   s 2
|1825>    1      0.860000       9.191690  2
|1826>    2      0.172000       0.008301  2
|1827>   p 2
|1828>    1      0.860000      17.997720  2
|1829>    2      0.172000      -0.032600  2
|1830>   d 2
|1831>    1      1.600000      -9.504310  2
|1832>    2      0.320000      -0.151370  2
|1833>   f 1
|1834>    1      1.000000000    0.000000000 2
|1835> end
|1836> Ti>    4.00000000000   -9.76205894620    0.00000000000   -1.27209143018
|1837> NewECP
|1838> N_core 0
|1839>   lmax f
|1840>   s 2
|1841>    1      0.860000       9.191690  2
|1842>    2      0.172000       0.008301  2
|1843>   p 2
|1844>    1      0.860000      17.997720  2
|1845>    2      0.172000      -0.032600  2
|1846>   d 2
|1847>    1      1.600000      -9.504310  2
|1848>    2      0.320000      -0.151370  2
|1849>   f 1
|1850>    1      1.000000000    0.000000000 2
|1851> end
|1852> Ti>    4.00000000000    9.76205894620    0.00000000000   -1.27209143018
|1853> NewECP
|1854> N_core 0
|1855>   lmax f
|1856>   s 2
|1857>    1      0.860000       9.191690  2
|1858>    2      0.172000       0.008301  2
|1859>   p 2
|1860>    1      0.860000      17.997720  2
|1861>    2      0.172000      -0.032600  2
|1862>   d 2
|1863>    1      1.600000      -9.504310  2
|1864>    2      0.320000      -0.151370  2
|1865>   f 1
|1866>    1      1.000000000    0.000000000 2
|1867> end
|1868> Ti>    4.00000000000   -6.50803929747    5.92218707193   -4.52611107891
|1869> NewECP
|1870> N_core 0
|1871>   lmax f
|1872>   s 2
|1873>    1      0.860000       9.191690  2
|1874>    2      0.172000       0.008301  2
|1875>   p 2
|1876>    1      0.860000      17.997720  2
|1877>    2      0.172000      -0.032600  2
|1878>   d 2
|1879>    1      1.600000      -9.504310  2
|1880>    2      0.320000      -0.151370  2
|1881>   f 1
|1882>    1      1.000000000    0.000000000 2
|1883> end
|1884> Ti>    4.00000000000    6.50803929747    5.92218707193   -4.52611107891
|1885> NewECP
|1886> N_core 0
|1887>   lmax f
|1888>   s 2
|1889>    1      0.860000       9.191690  2
|1890>    2      0.172000       0.008301  2
|1891>   p 2
|1892>    1      0.860000      17.997720  2
|1893>    2      0.172000      -0.032600  2
|1894>   d 2
|1895>    1      1.600000      -9.504310  2
|1896>    2      0.320000      -0.151370  2
|1897>   f 1
|1898>    1      1.000000000    0.000000000 2
|1899> end
|1900> Ti>    4.00000000000    6.50803929747   -5.92218707193   -4.52611107891
|1901> NewECP
|1902> N_core 0
|1903>   lmax f
|1904>   s 2
|1905>    1      0.860000       9.191690  2
|1906>    2      0.172000       0.008301  2
|1907>   p 2
|1908>    1      0.860000      17.997720  2
|1909>    2      0.172000      -0.032600  2
|1910>   d 2
|1911>    1      1.600000      -9.504310  2
|1912>    2      0.320000      -0.151370  2
|1913>   f 1
|1914>    1      1.000000000    0.000000000 2
|1915> end
|1916> Ti>    4.00000000000   -6.50803929747   -5.92218707193   -4.52611107891
|1917> NewECP
|1918> N_core 0
|1919>   lmax f
|1920>   s 2
|1921>    1      0.860000       9.191690  2
|1922>    2      0.172000       0.008301  2
|1923>   p 2
|1924>    1      0.860000      17.997720  2
|1925>    2      0.172000      -0.032600  2
|1926>   d 2
|1927>    1      1.600000      -9.504310  2
|1928>    2      0.320000      -0.151370  2
|1929>   f 1
|1930>    1      1.000000000    0.000000000 2
|1931> end
|1932> Ti>    4.00000000000   -6.50803929747    7.40273383991   -1.27209143018
|1933> NewECP
|1934> N_core 0
|1935>   lmax f
|1936>   s 2
|1937>    1      0.860000       9.191690  2
|1938>    2      0.172000       0.008301  2
|1939>   p 2
|1940>    1      0.860000      17.997720  2
|1941>    2      0.172000      -0.032600  2
|1942>   d 2
|1943>    1      1.600000      -9.504310  2
|1944>    2      0.320000      -0.151370  2
|1945>   f 1
|1946>    1      1.000000000    0.000000000 2
|1947> end
|1948> Ti>    4.00000000000    6.50803929747    7.40273383991   -1.27209143018
|1949> NewECP
|1950> N_core 0
|1951>   lmax f
|1952>   s 2
|1953>    1      0.860000       9.191690  2
|1954>    2      0.172000       0.008301  2
|1955>   p 2
|1956>    1      0.860000      17.997720  2
|1957>    2      0.172000      -0.032600  2
|1958>   d 2
|1959>    1      1.600000      -9.504310  2
|1960>    2      0.320000      -0.151370  2
|1961>   f 1
|1962>    1      1.000000000    0.000000000 2
|1963> end
|1964> Ti>    4.00000000000    6.50803929747   -7.40273383991   -1.27209143018
|1965> NewECP
|1966> N_core 0
|1967>   lmax f
|1968>   s 2
|1969>    1      0.860000       9.191690  2
|1970>    2      0.172000       0.008301  2
|1971>   p 2
|1972>    1      0.860000      17.997720  2
|1973>    2      0.172000      -0.032600  2
|1974>   d 2
|1975>    1      1.600000      -9.504310  2
|1976>    2      0.320000      -0.151370  2
|1977>   f 1
|1978>    1      1.000000000    0.000000000 2
|1979> end
|1980> Ti>    4.00000000000   -6.50803929747   -7.40273383991   -1.27209143018
|1981> NewECP
|1982> N_core 0
|1983>   lmax f
|1984>   s 2
|1985>    1      0.860000       9.191690  2
|1986>    2      0.172000       0.008301  2
|1987>   p 2
|1988>    1      0.860000      17.997720  2
|1989>    2      0.172000      -0.032600  2
|1990>   d 2
|1991>    1      1.600000      -9.504310  2
|1992>    2      0.320000      -0.151370  2
|1993>   f 1
|1994>    1      1.000000000    0.000000000 2
|1995> end
|1996> Ti>    4.00000000000    0.00000000000    8.88328060789   -4.52611107891
|1997> NewECP
|1998> N_core 0
|1999>   lmax f
|2000>   s 2
|2001>    1      0.860000       9.191690  2
|2002>    2      0.172000       0.008301  2
|2003>   p 2
|2004>    1      0.860000      17.997720  2
|2005>    2      0.172000      -0.032600  2
|2006>   d 2
|2007>    1      1.600000      -9.504310  2
|2008>    2      0.320000      -0.151370  2
|2009>   f 1
|2010>    1      1.000000000    0.000000000 2
|2011> end
|2012> Ti>    4.00000000000    0.00000000000   -8.88328060789   -4.52611107891
|2013> NewECP
|2014> N_core 0
|2015>   lmax f
|2016>   s 2
|2017>    1      0.860000       9.191690  2
|2018>    2      0.172000       0.008301  2
|2019>   p 2
|2020>    1      0.860000      17.997720  2
|2021>    2      0.172000      -0.032600  2
|2022>   d 2
|2023>    1      1.600000      -9.504310  2
|2024>    2      0.320000      -0.151370  2
|2025>   f 1
|2026>    1      1.000000000    0.000000000 2
|2027> end
|2028> Ti>    4.00000000000   -9.76205894620    1.48054676798    1.98192821856
|2029> NewECP
|2030> N_core 0
|2031>   lmax f
|2032>   s 2
|2033>    1      0.860000       9.191690  2
|2034>    2      0.172000       0.008301  2
|2035>   p 2
|2036>    1      0.860000      17.997720  2
|2037>    2      0.172000      -0.032600  2
|2038>   d 2
|2039>    1      1.600000      -9.504310  2
|2040>    2      0.320000      -0.151370  2
|2041>   f 1
|2042>    1      1.000000000    0.000000000 2
|2043> end
|2044> Ti>    4.00000000000    9.76205894620    1.48054676798    1.98192821856
|2045> NewECP
|2046> N_core 0
|2047>   lmax f
|2048>   s 2
|2049>    1      0.860000       9.191690  2
|2050>    2      0.172000       0.008301  2
|2051>   p 2
|2052>    1      0.860000      17.997720  2
|2053>    2      0.172000      -0.032600  2
|2054>   d 2
|2055>    1      1.600000      -9.504310  2
|2056>    2      0.320000      -0.151370  2
|2057>   f 1
|2058>    1      1.000000000    0.000000000 2
|2059> end
|2060> Ti>    4.00000000000    9.76205894620   -1.48054676798    1.98192821856
|2061> NewECP
|2062> N_core 0
|2063>   lmax f
|2064>   s 2
|2065>    1      0.860000       9.191690  2
|2066>    2      0.172000       0.008301  2
|2067>   p 2
|2068>    1      0.860000      17.997720  2
|2069>    2      0.172000      -0.032600  2
|2070>   d 2
|2071>    1      1.600000      -9.504310  2
|2072>    2      0.320000      -0.151370  2
|2073>   f 1
|2074>    1      1.000000000    0.000000000 2
|2075> end
|2076> Ti>    4.00000000000   -9.76205894620   -1.48054676798    1.98192821856
|2077> NewECP
|2078> N_core 0
|2079>   lmax f
|2080>   s 2
|2081>    1      0.860000       9.191690  2
|2082>    2      0.172000       0.008301  2
|2083>   p 2
|2084>    1      0.860000      17.997720  2
|2085>    2      0.172000      -0.032600  2
|2086>   d 2
|2087>    1      1.600000      -9.504310  2
|2088>    2      0.320000      -0.151370  2
|2089>   f 1
|2090>    1      1.000000000    0.000000000 2
|2091> end
|2092> Ti>    4.00000000000   -3.25401964873    4.44164030394    8.48996751602
|2093> NewECP
|2094> N_core 0
|2095>   lmax f
|2096>   s 2
|2097>    1      0.860000       9.191690  2
|2098>    2      0.172000       0.008301  2
|2099>   p 2
|2100>    1      0.860000      17.997720  2
|2101>    2      0.172000      -0.032600  2
|2102>   d 2
|2103>    1      1.600000      -9.504310  2
|2104>    2      0.320000      -0.151370  2
|2105>   f 1
|2106>    1      1.000000000    0.000000000 2
|2107> end
|2108> Ti>    4.00000000000    3.25401964873    4.44164030394    8.48996751602
|2109> NewECP
|2110> N_core 0
|2111>   lmax f
|2112>   s 2
|2113>    1      0.860000       9.191690  2
|2114>    2      0.172000       0.008301  2
|2115>   p 2
|2116>    1      0.860000      17.997720  2
|2117>    2      0.172000      -0.032600  2
|2118>   d 2
|2119>    1      1.600000      -9.504310  2
|2120>    2      0.320000      -0.151370  2
|2121>   f 1
|2122>    1      1.000000000    0.000000000 2
|2123> end
|2124> Ti>    4.00000000000    3.25401964873   -4.44164030394    8.48996751602
|2125> NewECP
|2126> N_core 0
|2127>   lmax f
|2128>   s 2
|2129>    1      0.860000       9.191690  2
|2130>    2      0.172000       0.008301  2
|2131>   p 2
|2132>    1      0.860000      17.997720  2
|2133>    2      0.172000      -0.032600  2
|2134>   d 2
|2135>    1      1.600000      -9.504310  2
|2136>    2      0.320000      -0.151370  2
|2137>   f 1
|2138>    1      1.000000000    0.000000000 2
|2139> end
|2140> Ti>    4.00000000000   -3.25401964873   -4.44164030394    8.48996751602
|2141> NewECP
|2142> N_core 0
|2143>   lmax f
|2144>   s 2
|2145>    1      0.860000       9.191690  2
|2146>    2      0.172000       0.008301  2
|2147>   p 2
|2148>    1      0.860000      17.997720  2
|2149>    2      0.172000      -0.032600  2
|2150>   d 2
|2151>    1      1.600000      -9.504310  2
|2152>    2      0.320000      -0.151370  2
|2153>   f 1
|2154>    1      1.000000000    0.000000000 2
|2155> end
|2156> Ti>    4.00000000000   -6.50803929747    1.48054676798   -7.78013072764
|2157> NewECP
|2158> N_core 0
|2159>   lmax f
|2160>   s 2
|2161>    1      0.860000       9.191690  2
|2162>    2      0.172000       0.008301  2
|2163>   p 2
|2164>    1      0.860000      17.997720  2
|2165>    2      0.172000      -0.032600  2
|2166>   d 2
|2167>    1      1.600000      -9.504310  2
|2168>    2      0.320000      -0.151370  2
|2169>   f 1
|2170>    1      1.000000000    0.000000000 2
|2171> end
|2172> Ti>    4.00000000000    6.50803929747    1.48054676798   -7.78013072764
|2173> NewECP
|2174> N_core 0
|2175>   lmax f
|2176>   s 2
|2177>    1      0.860000       9.191690  2
|2178>    2      0.172000       0.008301  2
|2179>   p 2
|2180>    1      0.860000      17.997720  2
|2181>    2      0.172000      -0.032600  2
|2182>   d 2
|2183>    1      1.600000      -9.504310  2
|2184>    2      0.320000      -0.151370  2
|2185>   f 1
|2186>    1      1.000000000    0.000000000 2
|2187> end
|2188> Ti>    4.00000000000    6.50803929747   -1.48054676798   -7.78013072764
|2189> NewECP
|2190> N_core 0
|2191>   lmax f
|2192>   s 2
|2193>    1      0.860000       9.191690  2
|2194>    2      0.172000       0.008301  2
|2195>   p 2
|2196>    1      0.860000      17.997720  2
|2197>    2      0.172000      -0.032600  2
|2198>   d 2
|2199>    1      1.600000      -9.504310  2
|2200>    2      0.320000      -0.151370  2
|2201>   f 1
|2202>    1      1.000000000    0.000000000 2
|2203> end
|2204> Ti>    4.00000000000   -6.50803929747   -1.48054676798   -7.78013072764
|2205> NewECP
|2206> N_core 0
|2207>   lmax f
|2208>   s 2
|2209>    1      0.860000       9.191690  2
|2210>    2      0.172000       0.008301  2
|2211>   p 2
|2212>    1      0.860000      17.997720  2
|2213>    2      0.172000      -0.032600  2
|2214>   d 2
|2215>    1      1.600000      -9.504310  2
[...]
 89 Q      0.0000     4.0000     4.0000     0.0000     0.0000     0.0000
 90 Q      0.0000     4.0000     4.0000     0.0000     0.0000     0.0000
 91 Q      0.0000     4.0000     4.0000     0.0000     0.0000     0.0000
 92 Q      0.0000     4.0000     4.0000     0.0000     0.0000     0.0000
 93 Q      0.0000     4.0000     4.0000     0.0000     0.0000     0.0000
 94 Q      0.0000     4.0000     4.0000     0.0000     0.0000     0.0000
 95 Q      0.0000     4.0000     4.0000     0.0000     0.0000     0.0000
 96 Q      0.0000     4.0000     4.0000     0.0000     0.0000     0.0000
 97 Q      0.0000     4.0000     4.0000     0.0000     0.0000     0.0000
 98 Q      0.0000     4.0000     4.0000     0.0000     0.0000     0.0000
 99 Q      0.0000     4.0000     4.0000     0.0000     0.0000     0.0000
100 Q      0.0000     4.0000     4.0000     0.0000     0.0000     0.0000
101 Q      0.0000     4.0000     4.0000     0.0000     0.0000     0.0000
102 Q      0.0000     4.0000     4.0000     0.0000     0.0000     0.0000
103 Q      0.0000     4.0000     4.0000     0.0000     0.0000     0.0000
104 Q      0.0000     4.0000     4.0000     0.0000     0.0000     0.0000
105 Q      0.0000     4.0000     4.0000     0.0000     0.0000     0.0000
106 Q      0.0000     4.0000     4.0000     0.0000     0.0000     0.0000
107 Q      0.0000     4.0000     4.0000     0.0000     0.0000     0.0000
108 Q      0.0000     4.0000     4.0000     0.0000     0.0000     0.0000
109 Q      0.0000     4.0000     4.0000     0.0000     0.0000     0.0000
110 Q      0.0000     4.0000     4.0000     0.0000     0.0000     0.0000
111 Q      0.0000     4.0000     4.0000     0.0000     0.0000     0.0000
112 Q      0.0000     4.0000     4.0000     0.0000     0.0000     0.0000
113 Q      0.0000     4.0000     4.0000     0.0000     0.0000     0.0000
114 Q      0.0000     4.0000     4.0000     0.0000     0.0000     0.0000
115 Q      0.0000     4.0000     4.0000     0.0000     0.0000     0.0000
116 Q      0.0000     4.0000     4.0000     0.0000     0.0000     0.0000
117 Q      0.0000     4.0000     4.0000     0.0000     0.0000     0.0000
118 Q      0.0000     4.0000     4.0000     0.0000     0.0000     0.0000
119 Q      0.0000     4.0000     4.0000     0.0000     0.0000     0.0000
120 Q      0.0000     4.0000     4.0000     0.0000     0.0000     0.0000
121 Q      0.0000     4.0000     4.0000     0.0000     0.0000     0.0000
122 Q      0.0000     4.0000     4.0000     0.0000     0.0000     0.0000
123 Q      0.0000     4.0000     4.0000     0.0000     0.0000     0.0000
124 Q      0.0000     4.0000     4.0000     0.0000     0.0000     0.0000
125 Q      0.0000     4.0000     4.0000     0.0000     0.0000     0.0000
126 Q      0.0000     4.0000     4.0000     0.0000     0.0000     0.0000
127 Q      0.0000     4.0000     4.0000     0.0000     0.0000     0.0000
128 Q      0.0000     4.0000     4.0000     0.0000     0.0000     0.0000
129 Q      0.0000     4.0000     4.0000     0.0000     0.0000     0.0000
130 Q      0.0000     4.0000     4.0000     0.0000     0.0000     0.0000
131 Q      0.0000     4.0000     4.0000     0.0000     0.0000     0.0000
132 Q      0.0000     4.0000     4.0000     0.0000     0.0000     0.0000
133 Q      0.0000     4.0000     4.0000     0.0000     0.0000     0.0000
134 Q      0.0000     4.0000     4.0000     0.0000     0.0000     0.0000
135 Q      0.0000     4.0000     4.0000     0.0000     0.0000     0.0000
136 Q      0.0000     4.0000     4.0000     0.0000     0.0000     0.0000
137 Q      0.0000     4.0000     4.0000     0.0000     0.0000     0.0000
138 Q      0.0000     4.0000     4.0000     0.0000     0.0000     0.0000
139 Q      0.0000     4.0000     4.0000     0.0000     0.0000     0.0000
140 Q      0.0000     4.0000     4.0000     0.0000     0.0000     0.0000
141 Q      0.0000     4.0000     4.0000     0.0000     0.0000     0.0000
142 Q      0.0000     4.0000     4.0000     0.0000     0.0000     0.0000
143 Q      0.0000     4.0000     4.0000     0.0000     0.0000     0.0000
144 Q      0.0000     4.0000     4.0000     0.0000     0.0000     0.0000
145 Q      0.0000     4.0000     4.0000     0.0000     0.0000     0.0000
146 Q      0.0000     4.0000     4.0000     0.0000     0.0000     0.0000
147 Q      0.0000     4.0000     4.0000     0.0000     0.0000     0.0000
148 Q      0.0000     4.0000     4.0000     0.0000     0.0000     0.0000
149 Q      0.0000     4.0000     4.0000     0.0000     0.0000     0.0000
150 Q      0.0000     4.0000     4.0000     0.0000     0.0000     0.0000
151 Q      0.0000     4.0000     4.0000     0.0000     0.0000     0.0000
152 Q      0.0000     4.0000     4.0000     0.0000     0.0000     0.0000
153 Q      0.0000     4.0000     4.0000     0.0000     0.0000     0.0000
154 Q      0.0000     4.0000     4.0000     0.0000     0.0000     0.0000
155 Q      0.0000     4.0000     4.0000     0.0000     0.0000     0.0000
156 Q      0.0000     4.0000     4.0000     0.0000     0.0000     0.0000
157 Q      0.0000     4.0000     4.0000     0.0000     0.0000     0.0000
158 Q      0.0000     4.0000     4.0000     0.0000     0.0000     0.0000
159 Q      0.0000     4.0000     4.0000     0.0000     0.0000     0.0000
160 Q      0.0000     4.0000     4.0000     0.0000     0.0000     0.0000
161 Q      0.0000     4.0000     4.0000     0.0000     0.0000     0.0000
162 Q      0.0000     4.0000     4.0000     0.0000     0.0000     0.0000
163 Q      0.0000     4.0000     4.0000     0.0000     0.0000     0.0000
164 Q      0.0000     4.0000     4.0000     0.0000     0.0000     0.0000
165 Q      0.0000     4.0000     4.0000     0.0000     0.0000     0.0000
166 Q      0.0000     4.0000     4.0000     0.0000     0.0000     0.0000
167 Q      0.0000     4.0000     4.0000     0.0000     0.0000     0.0000
168 Q      0.0000     4.0000     4.0000     0.0000     0.0000     0.0000
169 Q      0.0000     4.0000     4.0000     0.0000     0.0000     0.0000
170 Q      0.0000     4.0000     4.0000     0.0000     0.0000     0.0000
171 Q      0.0000     4.0000     4.0000     0.0000     0.0000     0.0000
172 Q      0.0000     4.0000     4.0000     0.0000     0.0000     0.0000
173 Q      0.0000     4.0000     4.0000     0.0000     0.0000     0.0000
174 Q      0.0000     4.0000     4.0000     0.0000     0.0000     0.0000
175 Q      0.0000     4.0000     4.0000     0.0000     0.0000     0.0000
176 Q      0.0000     4.0000     4.0000     0.0000     0.0000     0.0000
177 Q      0.0000     4.0000     4.0000     0.0000     0.0000     0.0000
178 Q      0.0000     4.0000     4.0000     0.0000     0.0000     0.0000
179 Q      0.0000     4.0000     4.0000     0.0000     0.0000     0.0000
180 Q      0.0000     4.0000     4.0000     0.0000     0.0000     0.0000
181 Q      0.0000     4.0000     4.0000     0.0000     0.0000     0.0000
182 Q      0.0000     4.0000     4.0000     0.0000     0.0000     0.0000
183 Q      0.0000     4.0000     4.0000     0.0000     0.0000     0.0000
184 Q      0.0000     4.0000     4.0000     0.0000     0.0000     0.0000
185 Q      0.0000     4.0000     4.0000     0.0000     0.0000     0.0000
186 Q      0.0000     4.0000     4.0000     0.0000     0.0000     0.0000
187 Q      0.0000     4.0000     4.0000     0.0000     0.0000     0.0000
188 Q      0.0000     4.0000     4.0000     0.0000     0.0000     0.0000
189 Q      0.0000     4.0000     4.0000     0.0000     0.0000     0.0000
190 Q      0.0000     4.0000     4.0000     0.0000     0.0000     0.0000
191 Q      0.0000     4.0000     4.0000     0.0000     0.0000     0.0000
192 Q      0.0000     4.0000     4.0000     0.0000     0.0000     0.0000
193 Q      0.0000     4.0000     4.0000     0.0000     0.0000     0.0000
194 Q      0.0000     4.0000     4.0000     0.0000     0.0000     0.0000
195 Q      0.0000     4.0000     4.0000     0.0000     0.0000     0.0000
196 Q      0.0000     4.0000     4.0000     0.0000     0.0000     0.0000
197 Q      0.0000     4.0000     4.0000     0.0000     0.0000     0.0000
198 Q      0.0000     4.0000     4.0000     0.0000     0.0000     0.0000
199 Q      0.0000     4.0000     4.0000     0.0000     0.0000     0.0000
200 Q      0.0000     4.0000     4.0000     0.0000     0.0000     0.0000
201 Q      0.0000     4.0000     4.0000     0.0000     0.0000     0.0000
202 Q      0.0000     4.0000     4.0000     0.0000     0.0000     0.0000
203 Q      0.0000     4.0000     4.0000     0.0000     0.0000     0.0000
204 Q      0.0000     4.0000     4.0000     0.0000     0.0000     0.0000
205 Q      0.0000     4.0000     4.0000     0.0000     0.0000     0.0000
206 Q      0.0000     4.0000     4.0000     0.0000     0.0000     0.0000
207 Q      0.0000     4.0000     4.0000     0.0000     0.0000     0.0000
208 Q      0.0000     4.0000     4.0000     0.0000     0.0000     0.0000
209 Q      0.0000     4.0000     4.0000     0.0000     0.0000     0.0000
210 Q      0.0000     4.0000     4.0000     0.0000     0.0000     0.0000
211 Q      0.0000     4.0000     4.0000     0.0000     0.0000     0.0000
212 Q      0.0000     4.0000     4.0000     0.0000     0.0000     0.0000
213 Q      0.0000     4.0000     4.0000     0.0000     0.0000     0.0000
214 Q      0.0000     4.0000     4.0000     0.0000     0.0000     0.0000
215 Q      0.0000     4.0000     4.0000     0.0000     0.0000     0.0000
216 Q      0.0000     4.0000     4.0000     0.0000     0.0000     0.0000
217 Q      0.0000     4.0000     4.0000     0.0000     0.0000     0.0000
218 Q      0.0000     4.0000     4.0000     0.0000     0.0000     0.0000
219 Q      0.0000     4.0000     4.0000     0.0000     0.0000     0.0000
220 Q      0.0000     4.0000     4.0000     0.0000     0.0000     0.0000
221 Q      0.0000     4.0000     4.0000     0.0000     0.0000     0.0000
222 Q      0.0000     4.0000     4.0000     0.0000     0.0000     0.0000
223 Q      0.0000     4.0000     4.0000     0.0000     0.0000     0.0000
224 Q      0.0000     4.0000     4.0000     0.0000     0.0000     0.0000
225 Q      0.0000     4.0000     4.0000     0.0000     0.0000     0.0000
226 Q      0.0000     4.0000     4.0000     0.0000     0.0000     0.0000
227 Q      0.0000     4.0000     4.0000     0.0000     0.0000     0.0000
228 Q      0.0000     4.0000     4.0000     0.0000     0.0000     0.0000
229 Q      0.0000     4.0000     4.0000     0.0000     0.0000     0.0000
230 Q      0.0000     4.0000     4.0000     0.0000     0.0000     0.0000
231 Q      0.0000     4.0000     4.0000     0.0000     0.0000     0.0000
232 Q      0.0000     4.0000     4.0000     0.0000     0.0000     0.0000
233 Q      0.0000     4.0000     4.0000     0.0000     0.0000     0.0000
234 Q      0.0000     4.0000     4.0000     0.0000     0.0000     0.0000
235 Q      0.0000     4.0000     4.0000     0.0000     0.0000     0.0000
236 Q      0.0000     4.0000     4.0000     0.0000     0.0000     0.0000
237 Q      0.0000     4.0000     4.0000     0.0000     0.0000     0.0000
238 Q      0.0000     4.0000     4.0000     0.0000     0.0000     0.0000
239 Q      0.0000     4.0000     4.0000     0.0000     0.0000     0.0000
240 Q      0.0000     4.0000     4.0000     0.0000     0.0000     0.0000
241 Q      0.0000     4.0000     4.0000     0.0000     0.0000     0.0000
242 Q      0.0000     4.0000     4.0000     0.0000     0.0000     0.0000
243 Q      0.0000     4.0000     4.0000     0.0000     0.0000     0.0000
244 Q      0.0000     4.0000     4.0000     0.0000     0.0000     0.0000
245 Q      0.0000     4.0000     4.0000     0.0000     0.0000     0.0000
246 Q      0.0000     4.0000     4.0000     0.0000     0.0000     0.0000
247 Q      0.0000     4.0000     4.0000     0.0000     0.0000     0.0000
248 Q      0.0000     4.0000     4.0000     0.0000     0.0000     0.0000
249 Q      0.0000     4.0000     4.0000     0.0000     0.0000     0.0000
250 Q      0.0000     4.0000     4.0000     0.0000     0.0000     0.0000
251 Q      0.0000     4.0000     4.0000     0.0000     0.0000     0.0000
252 Q      0.0000     4.0000     4.0000     0.0000     0.0000     0.0000
253 Q      0.0000     4.0000     4.0000     0.0000     0.0000     0.0000
254 Q      0.0000     4.0000     4.0000     0.0000     0.0000     0.0000
255 Q      0.0000     4.0000     4.0000     0.0000     0.0000     0.0000
256 Q      0.0000     4.0000     4.0000     0.0000     0.0000     0.0000
257 Q      0.0000     4.0000     4.0000     0.0000     0.0000     0.0000
258 Q      0.0000     4.0000     4.0000     0.0000     0.0000     0.0000
259 Q      0.0000     4.0000     4.0000     0.0000     0.0000     0.0000
260 Q      0.0000     4.0000     4.0000     0.0000     0.0000     0.0000
261 Q      0.0000     4.0000     4.0000     0.0000     0.0000     0.0000
262 Q      0.0000     4.0000     4.0000     0.0000     0.0000     0.0000
263 Q      0.0000     4.0000     4.0000     0.0000     0.0000     0.0000
264 Q      0.0000     4.0000     4.0000     0.0000     0.0000     0.0000
265 Q      0.0000     4.0000     4.0000     0.0000     0.0000     0.0000
266 Q      0.0000     4.0000     4.0000     0.0000     0.0000     0.0000
267 Q      0.0000     4.0000     4.0000     0.0000     0.0000     0.0000
268 Q      0.0000     4.0000     4.0000     0.0000     0.0000     0.0000
269 Q      0.0000     4.0000     4.0000     0.0000     0.0000     0.0000
270 Q      0.0000     4.0000     4.0000     0.0000     0.0000     0.0000
271 Q      0.0000     4.0000     4.0000     0.0000     0.0000     0.0000

  Mayer bond orders larger than 0.100000
B(  0-O ,  1-Ti) :   0.7507 B(  0-O ,  2-Ti) :   0.7508 B(  0-O ,  3-Ti) :   0.8475 
B(  1-Ti,  4-O ) :   0.7400 B(  1-Ti,  9-O ) :   0.1789 B(  1-Ti, 10-O ) :   0.1789 
B(  1-Ti, 13-O ) :   0.6740 B(  1-Ti, 37-O ) :   0.1056 B(  1-Ti, 38-O ) :   0.1056 
B(  2-Ti,  4-O ) :   0.7400 B(  2-Ti, 11-O ) :   0.1789 B(  2-Ti, 12-O ) :   0.1789 
B(  2-Ti, 14-O ) :   0.6740 B(  2-Ti, 39-O ) :   0.1056 B(  2-Ti, 40-O ) :   0.1056 
B(  3-Ti,  5-O ) :   0.5336 B(  3-Ti,  6-O ) :   0.5336 B(  3-Ti,  7-O ) :   0.5336 
B(  3-Ti,  8-O ) :   0.5336 B(  3-Ti, 13-O ) :  -0.1280 B(  3-Ti, 14-O ) :  -0.1280 
B(  3-Ti, 23-O ) :  -0.4214 B(  3-Ti, 33-O ) :  -0.2790 B(  3-Ti, 34-O ) :  -0.2790 
B(  3-Ti, 45-O ) :   0.4295 B(  3-Ti, 46-O ) :   0.4295 B(  3-Ti, 51-O ) :   0.1158 
B(  3-Ti, 52-O ) :   0.1158 B(  3-Ti, 53-O ) :   0.1158 B(  3-Ti, 54-O ) :   0.1158 
B(  4-O , 32-Ti) :   0.9808 B(  5-O , 19-Ti) :   0.8314 B(  5-O , 24-Ti) :   0.9794 
B(  6-O , 19-Ti) :   0.8314 B(  6-O , 25-Ti) :   0.9794 B(  7-O , 20-Ti) :   0.8314 
B(  7-O , 26-Ti) :   0.9794 B(  8-O , 20-Ti) :   0.8314 B(  8-O , 27-Ti) :   0.9794 
B(  9-O , 17-Ti) :   1.0003 B(  9-O , 37-O ) :  -0.1314 B( 10-O , 18-Ti) :   1.0003 
B( 10-O , 38-O ) :  -0.1314 B( 11-O , 18-Ti) :   1.0003 B( 11-O , 39-O ) :  -0.1315 
B( 12-O , 17-Ti) :   1.0003 B( 12-O , 40-O ) :  -0.1315 B( 13-O , 19-Ti) :   0.5538 
B( 13-O , 21-O ) :  -0.1400 B( 14-O , 20-Ti) :   0.5538 B( 14-O , 22-O ) :  -0.1400 
B( 15-O , 17-Ti) :   0.7967 B( 15-O , 24-Ti) :   0.8004 B( 15-O , 27-Ti) :   0.8004 
B( 16-O , 18-Ti) :   0.7967 B( 16-O , 25-Ti) :   0.8004 B( 16-O , 26-Ti) :   0.8004 
B( 17-Ti, 24-Ti) :   0.1309 B( 17-Ti, 27-Ti) :   0.1309 B( 17-Ti, 28-O ) :   0.2373 
B( 17-Ti, 31-O ) :   0.2373 B( 17-Ti, 35-O ) :   0.3486 B( 17-Ti, 37-O ) :   0.4467 
B( 17-Ti, 40-O ) :   0.4467 B( 18-Ti, 25-Ti) :   0.1309 B( 18-Ti, 26-Ti) :   0.1309 
B( 18-Ti, 29-O ) :   0.2373 B( 18-Ti, 30-O ) :   0.2373 B( 18-Ti, 36-O ) :   0.3486 
B( 18-Ti, 38-O ) :   0.4467 B( 18-Ti, 39-O ) :   0.4467 B( 19-Ti, 23-O ) :   0.2026 
B( 19-Ti, 47-O ) :   0.1960 B( 19-Ti, 48-O ) :   0.1960 B( 20-Ti, 23-O ) :   0.2025 
B( 20-Ti, 49-O ) :   0.1960 B( 20-Ti, 50-O ) :   0.1960 B( 21-O , 32-Ti) :   0.2161 
B( 22-O , 32-Ti) :   0.2161 B( 24-Ti, 27-Ti) :   0.1475 B( 24-Ti, 33-O ) :   0.6789 
B( 24-Ti, 47-O ) :   0.2685 B( 24-Ti, 51-O ) :   0.2795 B( 24-Ti, 55-O ) :   0.3287 
B( 24-Ti, 58-O ) :   0.1969 B( 25-Ti, 26-Ti) :   0.1475 B( 25-Ti, 34-O ) :   0.6789 
B( 25-Ti, 48-O ) :   0.2685 B( 25-Ti, 52-O ) :   0.2795 B( 25-Ti, 56-O ) :   0.3287 
B( 25-Ti, 57-O ) :   0.1969 B( 26-Ti, 34-O ) :   0.6789 B( 26-Ti, 49-O ) :   0.2685 
B( 26-Ti, 53-O ) :   0.2795 B( 26-Ti, 56-O ) :   0.1969 B( 26-Ti, 57-O ) :   0.3287 
B( 27-Ti, 33-O ) :   0.6789 B( 27-Ti, 50-O ) :   0.2685 B( 27-Ti, 54-O ) :   0.2795 
B( 27-Ti, 55-O ) :   0.1969 B( 27-Ti, 58-O ) :   0.3287 B( 32-Ti, 35-O ) :   0.1133 
B( 32-Ti, 36-O ) :   0.1133 B( 32-Ti, 41-O ) :   0.4901 B( 32-Ti, 42-O ) :   0.4901 
B( 32-Ti, 43-O ) :   0.4901 B( 32-Ti, 44-O ) :   0.4901 B( 32-Ti, 59-O ) :   0.5362 


-------
TIMINGS
-------

Total SCF time: 0 days 0 hours 4 min 51 sec 

Total time                  ....     291.739 sec
Sum of individual times     ....     280.511 sec  ( 96.2%)

Fock matrix formation       ....     189.713 sec  ( 65.0%)
  XC integration            ....      76.102 sec  ( 40.1% of F)
    Basis function eval.    ....       8.668 sec  ( 11.4% of XC)
    Density eval.           ....      39.095 sec  ( 51.4% of XC)
    XC-Functional eval.     ....       0.646 sec  (  0.8% of XC)
    XC-Potential eval.      ....      18.293 sec  ( 24.0% of XC)
Diagonalization             ....      35.277 sec  ( 12.1%)
Density matrix formation    ....       2.163 sec  (  0.7%)
Population analysis         ....       6.246 sec  (  2.1%)
Initial guess               ....       7.183 sec  (  2.5%)
Orbital Transformation      ....       0.000 sec  (  0.0%)
Orbital Orthonormalization  ....       0.000 sec  (  0.0%)
DIIS solution               ....      36.899 sec  ( 12.6%)
Grid generation             ....       3.030 sec  (  1.0%)

Maximum memory used throughout the entire SCF-calculation: 563.1 MB

-------------------------   --------------------
FINAL SINGLE POINTENERGY    -30951.167201097294
-------------------------   --------------------


                            ***************************************
                            *     ORCA property calculations      *
                            ***************************************

                                    ---------------------
                                    Active property flags
                                    ---------------------
   (+) Dipole Moment


------------------------------------------------------------------------------
                       ORCA ELECTRIC PROPERTIES CALCULATION
------------------------------------------------------------------------------

Dipole Moment Calculation                       ... on
Quadrupole Moment Calculation                   ... off
Polarizability Calculation                      ... off
GBWName                                         ... orca.gbw
Electron density                                ... orca.scfp
The origin for moment calculation is the CENTER OF MASS  = ( 0.000000,  0.000000  0.524162)

-------------
DIPOLE MOMENT
-------------
                                X             Y             Z
Electronic contribution:      0.00000      -0.00000      21.20563
Nuclear contribution   :      0.00000       0.00000    -174.33045
                        -----------------------------------------
Total Dipole Moment    :      0.00000      -0.00000    -153.12483
                        -----------------------------------------
Magnitude (a.u.)       :    153.12483
Magnitude (Debye)      :    389.21238



--------------------
Rotational spectrum 
--------------------
 
Rotational constants in cm-1:     0.001265     0.001167     0.000994 
Rotational constants in MHz :    37.937895    34.998039    29.788106 

 Dipole components along the rotational axes: 
x,y,z [a.u.] :     0.000000  -153.124825    -0.000001 
x,y,z [Debye]:     0.000000  -389.212375    -0.000001 

 

Timings for individual modules:

Sum of individual times         ...     1130.147 sec (=  18.836 min)
GTO integral calculation        ...      835.956 sec (=  13.933 min)  74.0 %
SCF iterations                  ...      294.191 sec (=   4.903 min)  26.0 %
                             ****ORCA TERMINATED NORMALLY****
TOTAL RUN TIME: 0 days 0 hours 18 minutes 58 seconds 278 msec
