 vasp.6.2.0 18Jan21 (build Mar 03 2021 13:27:41) complex                        
  
 executed on             LinuxIFC date 2021.07.14  17:04:18
 running on  120 total cores
 distrk:  each k-point on  120 cores,    1 groups
 distr:  one band on NCORE=  20 cores,    6 groups


--------------------------------------------------------------------------------------------------------


 INCAR:
   SYSTEM = TiO2-rutile
   ISMEAR = 0
   SIGMA = 0.05
   EDIFF = 1E-5
   ALGO = Fast
   ISTART = 1
   ISYM = 0
   IBRION = -1
   NSW = 0
   EDIFFG = -0.01
   ENCUT = 500
   PREC = Accurate
   LASPH = .TRUE.
   LREAL = Auto
   ISPIN = 1
   NELM = 500
   NELMIN = 4
   NCORE = 20
   LWAVE = .FALSE.
   LCHARG = .FALSE.
   LORBIT = 11

 POTCAR:    PAW Ti_sv 26Sep2005                   
 POTCAR:    PAW O 22Mar2012                       
 POTCAR:    PAW Ti_sv 26Sep2005                   
   SHA256 =  078bba2ba76fa12a112e91ee4366291a6d5e3996f0e1133d3572cac314e14472 Ti_sv/POTCAR          
   COPYR  = (c) Copyright 26Sep2005 Georg Kresse                                                    
   COPYR  = This file is part of the software VASP. Any use, copying, and all other rights are regul
   COPYR  = If you do not have a valid VASP license, you may not use, copy or distribute this file. 
   VRHFIN =Ti: 3s3p4s3d                                                                             
   LEXCH  = CA                                                                                      
   EATOM  =  1588.8698 eV,  116.7786 Ry                                                             
                                                                                                    
   TITEL  = PAW Ti_sv 26Sep2005                                                                     
   LULTRA =        F    use ultrasoft PP ?                                                          
   IUNSCR =        1    unscreen: 0-lin 1-nonlin 2-no                                               
   RPACOR =    2.000    partial core radius                                                         
   POMASS =   47.880; ZVAL   =   12.000    mass and valenz                                          
   RCORE  =    2.300    outmost cutoff radius                                                       
   RWIGS  =    2.300; RWIGS  =    1.217    wigner-seitz radius (au A)                               
   ENMAX  =  274.719; ENMIN  =  206.039 eV                                                          
   ICORE  =        3    local potential                                                             
   LCOR   =        T    correct aug charges                                                         
   LPAW   =        T    paw PP                                                                      
   EAUG   =  482.848                                                                                
   RMAX   =    2.348    core radius for proj-oper                                                   
   RAUG   =    1.300    factor for augmentation sphere                                              
   RDEP   =    2.381    radius for radial grids                                                     
   RDEPT  =    1.930    core radius for aug-charge                                                  
                                                                                                    
   Atomic configuration                                                                             
    8 entries                                                                                       
     n  l   j            E        occ.                                                              
     1  0  0.50     -4841.5915   2.0000                                                             
     2  0  0.50      -530.7755   2.0000                                                             
     2  1  1.50      -439.8260   6.0000                                                             
     3  0  0.50       -58.8300   2.0000                                                             
     4  0  0.50        -3.8733   1.0000                                                             
     3  1  1.50       -35.5746   6.0000                                                             
     3  2  2.50        -2.0952   3.0000                                                             
     4  3  2.50        -1.3606   0.0000                                                             
   Description                                                                                      
     l       E           TYP  RCUT    TYP  RCUT                                                     
     0    -58.8300472     23  1.800                                                                 
     0     -3.8733026     23  2.300                                                                 
     1    -35.5746147     23  2.300                                                                 
     1     -1.3605826     23  2.300                                                                 
     2     -2.0951860     23  2.300                                                                 
     2     -0.1606077     23  2.300                                                                 
     3     -1.3605826     23  2.300                                                                 
  local pseudopotential read in
  partial core-charges read in
  partial kinetic energy density read in
  atomic valenz-charges read in
  non local Contribution for L=           0  read in
    real space projection operators read in
  non local Contribution for L=           0  read in
    real space projection operators read in
  non local Contribution for L=           1  read in
    real space projection operators read in
  non local Contribution for L=           1  read in
    real space projection operators read in
  non local Contribution for L=           2  read in
    real space projection operators read in
  non local Contribution for L=           2  read in
    real space projection operators read in
    PAW grid and wavefunctions read in
 
   number of l-projection  operators is LMAX  =           6
   number of lm-projection operators is LMMAX =          18
 
 POTCAR:    PAW O 22Mar2012                       
   SHA256 =  fb56c0ff35fa0205295a7064175e8d4dc8b8fd86664824e51d4c6af4372219f2 O/POTCAR              
   COPYR  = (c) Copyright 22Mar2012 Georg Kresse                                                    
   COPYR  = This file is part of the software VASP. Any use, copying, and all other rights are regul
   COPYR  = If you do not have a valid VASP license, you may not use, copy or distribute this file. 
   VRHFIN =O: s2p4                                                                                  
   LEXCH  = CA                                                                                      
   EATOM  =   431.4380 eV,   31.7098 Ry                                                             
                                                                                                    
   TITEL  = PAW O 22Mar2012                                                                         
   LULTRA =        F    use ultrasoft PP ?                                                          
   IUNSCR =        1    unscreen: 0-lin 1-nonlin 2-no                                               
   RPACOR =    1.200    partial core radius                                                         
   POMASS =   16.000; ZVAL   =    6.000    mass and valenz                                          
   RCORE  =    1.520    outmost cutoff radius                                                       
   RWIGS  =    1.550; RWIGS  =    0.820    wigner-seitz radius (au A)                               
   ENMAX  =  400.000; ENMIN  =  300.000 eV                                                          
   ICORE  =        2    local potential                                                             
   LCOR   =        T    correct aug charges                                                         
   LPAW   =        T    paw PP                                                                      
   EAUG   =  605.392                                                                                
   DEXC   =    0.000                                                                                
   RMAX   =    1.553    core radius for proj-oper                                                   
   RAUG   =    1.300    factor for augmentation sphere                                              
   RDEP   =    1.550    radius for radial grids                                                     
   RDEPT  =    1.329    core radius for aug-charge                                                  
                                                                                                    
   Atomic configuration                                                                             
    4 entries                                                                                       
     n  l   j            E        occ.                                                              
     1  0  0.50      -510.4605   2.0000                                                             
     2  0  0.50       -23.7367   2.0000                                                             
     2  1  0.50        -9.1995   4.0000                                                             
     3  2  1.50        -9.5241   0.0000                                                             
   Description                                                                                      
     l       E           TYP  RCUT    TYP  RCUT                                                     
     0    -23.7366993     23  1.200                                                                 
     0     -9.5240782     23  1.200                                                                 
     1     -9.1994509     23  1.520                                                                 
     1      8.1634956     23  1.520                                                                 
     2     -9.5240782      7  1.500                                                                 
  local pseudopotential read in
  partial core-charges read in
  partial kinetic energy density read in
  kinetic energy density of atom read in
  atomic valenz-charges read in
  non local Contribution for L=           0  read in
    real space projection operators read in
  non local Contribution for L=           0  read in
    real space projection operators read in
  non local Contribution for L=           1  read in
    real space projection operators read in
  non local Contribution for L=           1  read in
    real space projection operators read in
    PAW grid and wavefunctions read in
 
   number of l-projection  operators is LMAX  =           4
   number of lm-projection operators is LMMAX =           8
 
 Optimization of the real space projectors (new method)

 maximal supplied QI-value         = 16.25
 optimisation between [QCUT,QGAM] = [ 11.38, 22.75] = [ 36.24,144.96] Ry 
 Optimized for a Real-space Cutoff    1.27 Angstroem

   l    n(q)    QCUT    max X(q) W(low)/X(q) W(high)/X(q)  e(spline) 
   0      9    11.376    12.197    0.54E-04    0.21E-04    0.24E-07
   0      9    11.376    11.139    0.92E-04    0.47E-05    0.33E-07
   1      8    11.376     4.011    0.10E-03    0.98E-04    0.29E-07
   1      8    11.376     6.084    0.81E-04    0.18E-03    0.11E-06
   2      8    11.376    46.184    0.13E-03    0.88E-03    0.24E-06
   2      8    11.376    41.673    0.13E-03    0.85E-03    0.23E-06
 Optimization of the real space projectors (new method)

 maximal supplied QI-value         = 24.76
 optimisation between [QCUT,QGAM] = [ 11.39, 22.77] = [ 36.31,145.25] Ry 
 Optimized for a Real-space Cutoff    1.10 Angstroem

   l    n(q)    QCUT    max X(q) W(low)/X(q) W(high)/X(q)  e(spline) 
   0      7    11.387    20.659    0.22E-03    0.50E-03    0.19E-06
   0      7    11.387    15.633    0.22E-03    0.53E-03    0.20E-06
   1      7    11.387     5.864    0.22E-03    0.73E-03    0.24E-06
   1      7    11.387     5.285    0.18E-03    0.60E-03    0.21E-06
  PAW Ti_sv 26Sep2005                   :
 energy of atom  1       EATOM=-1588.8698
 kinetic energy error for atom=    0.0046 (will be added to EATOM!!)
  PAW O 22Mar2012                       :
 energy of atom  2       EATOM= -431.4380
 kinetic energy error for atom=    0.0220 (will be added to EATOM!!)
 
 
 POSCAR: Ti  O
  positions in direct lattice
  velocities in cartesian coordinates
 exchange correlation table for  LEXCH =        2
   RHO(1)=    0.500       N(1)  =     2000
   RHO(2)=  100.500       N(2)  =     4000
 


--------------------------------------------------------------------------------------------------------


 ion  position               nearest neighbor table
   1  0.250  0.125  0.110-  67 1.93  83 1.93  68 1.93  84 1.93  66 1.96  65 1.96
   2  0.000  0.000  0.110-  65 1.93 112 1.93 129 1.93 177 1.93 143 1.96  71 1.96
   3  0.500  0.125  0.360- 134 1.93 150 1.93  72 1.93  88 1.93  69 1.96 133 1.96
   4  0.250  0.000  0.360-  70 1.93 117 1.93 116 1.93  69 1.93  68 1.96  75 1.96
   5  0.250  0.125  0.610-  75 1.93  91 1.93  76 1.93  92 1.93  74 1.96  73 1.96
   6  0.000  0.000  0.610-  73 1.93 120 1.93 137 1.93 185 1.93 135 1.96  79 1.96
   7  0.500  0.125  0.860- 142 1.93 158 1.93  80 1.93  96 1.93  77 1.96 141 1.96
   8  0.250  0.000  0.860-  78 1.93 125 1.93 124 1.93  77 1.93  76 1.96  67 1.96
   9  0.250  0.375  0.110-  83 1.93  99 1.93  84 1.93 100 1.93  82 1.96  81 1.96
  10  0.000  0.250  0.110-  65 1.93  81 1.93 129 1.93 145 1.93 159 1.96  87 1.96
  11  0.500  0.375  0.360- 150 1.93 166 1.93  88 1.93  85 1.96 149 1.96
  12  0.250  0.250  0.360-  70 1.93  86 1.93  85 1.93  69 1.93  84 1.96  91 1.96
  13  0.250  0.375  0.610-  91 1.93 106 1.93  92 1.93 107 1.93  90 1.96  89 1.96
  14  0.000  0.250  0.610-  73 1.93  89 1.93 137 1.93 153 1.93 151 1.96  95 1.96
  15  0.500  0.375  0.860- 158 1.93 174 1.93  96 1.93 111 1.93  93 1.96 157 1.96
  16  0.250  0.250  0.860-  78 1.93  94 1.93  93 1.93  77 1.93  92 1.96  83 1.96
  17  0.250  0.625  0.110-  99 1.93 114 1.93 100 1.93 115 1.93  98 1.96  97 1.96
  18  0.000  0.500  0.110-  81 1.93  97 1.93 145 1.93 161 1.93 175 1.96 103 1.96
  19  0.500  0.625  0.360- 166 1.93 182 1.93 119 1.93 101 1.96 165 1.96
  20  0.250  0.500  0.360-  86 1.93 102 1.93 101 1.93  85 1.93 100 1.96 106 1.96
  21  0.250  0.625  0.610- 106 1.93 122 1.93 107 1.93 123 1.93 105 1.96 104 1.96
  22  0.000  0.500  0.610-  89 1.93 104 1.93 153 1.93 169 1.93 167 1.96 110 1.96
  23  0.500  0.625  0.860- 174 1.93 190 1.93 111 1.93 127 1.93 108 1.96 173 1.96
  24  0.250  0.500  0.860-  94 1.93 109 1.93 108 1.93  93 1.93 107 1.96  99 1.96
  25  0.250  0.875  0.110-  67 1.93 114 1.93  68 1.93 115 1.93 113 1.96 112 1.96
  26  0.000  0.750  0.110-  97 1.93 112 1.93 161 1.93 177 1.93 191 1.96 118 1.96
  27  0.500  0.875  0.360- 134 1.93 182 1.93  72 1.93 119 1.93 116 1.96 181 1.96
  28  0.250  0.750  0.360- 102 1.93 117 1.93 116 1.93 101 1.93 115 1.96 122 1.96
  29  0.250  0.875  0.610-  75 1.93 122 1.93  76 1.93 123 1.93 121 1.96 120 1.96
  30  0.000  0.750  0.610- 104 1.93 120 1.93 169 1.93 185 1.93 183 1.96 126 1.96
  31  0.500  0.875  0.860- 142 1.93 190 1.93  80 1.93 127 1.93 124 1.96 189 1.96
  32  0.250  0.750  0.860- 109 1.93 125 1.93 124 1.93 108 1.93 123 1.96 114 1.96
  33  0.750  0.125  0.110- 130 1.93 146 1.93 131 1.93 147 1.93 128 1.96 129 1.96
  34  0.500  0.000  0.110-  66 1.93 113 1.93 128 1.93 176 1.93  80 1.96 134 1.96
  35  0.000  0.125  0.360-  71 1.93  87 1.93 135 1.93 151 1.93 132 1.96  70 1.96
  36  0.750  0.000  0.360- 133 1.93 181 1.93 180 1.93 132 1.93 131 1.96 138 1.96
  37  0.750  0.125  0.610- 138 1.93 154 1.93 139 1.93 155 1.93 136 1.96 137 1.96
  38  0.500  0.000  0.610-  74 1.93 121 1.93 136 1.93 184 1.93  72 1.96 142 1.96
  39  0.000  0.125  0.860-  79 1.93  95 1.93 143 1.93 159 1.93 140 1.96  78 1.96
  40  0.750  0.000  0.860- 141 1.93 189 1.93 188 1.93 140 1.93 139 1.96 130 1.96
  41  0.750  0.375  0.110- 146 1.93 162 1.93 147 1.93 163 1.93 144 1.96 145 1.96
  42  0.500  0.250  0.110-  66 1.93  82 1.93 128 1.93 144 1.93  96 1.96 150 1.96
  43  0.000  0.375  0.360-  87 1.93 103 1.93 151 1.93 167 1.93 148 1.96  86 1.96
  44  0.750  0.250  0.360- 133 1.93 149 1.93 148 1.93 132 1.93 147 1.96 154 1.96
  45  0.750  0.375  0.610- 154 1.93 170 1.93 155 1.93 171 1.93 152 1.96 153 1.96
  46  0.500  0.250  0.610-  74 1.93  90 1.93 136 1.93 152 1.93  88 1.96 158 1.96
  47  0.000  0.375  0.860-  95 1.93 110 1.93 159 1.93 175 1.93 156 1.96  94 1.96
  48  0.750  0.250  0.860- 141 1.93 157 1.93 156 1.93 140 1.93 155 1.96 146 1.96
  49  0.750  0.625  0.110- 162 1.93 178 1.93 163 1.93 179 1.93 160 1.96 161 1.96
  50  0.500  0.500  0.110-  82 1.93  98 1.93 144 1.93 160 1.93 111 1.96 166 1.96
  51  0.000  0.625  0.360- 103 1.93 118 1.93 167 1.93 183 1.93 164 1.96 102 1.96
  52  0.750  0.500  0.360- 149 1.93 165 1.93 164 1.93 148 1.93 163 1.96 170 1.96
  53  0.750  0.625  0.610- 170 1.93 186 1.93 171 1.93 187 1.93 168 1.96 169 1.96
  54  0.500  0.500  0.610-  90 1.93 105 1.93 152 1.93 168 1.93 174 1.96
  55  0.000  0.625  0.860- 110 1.93 126 1.93 175 1.93 191 1.93 172 1.96 109 1.96
  56  0.750  0.500  0.860- 157 1.93 173 1.93 172 1.93 156 1.93 171 1.96 162 1.96
  57  0.750  0.875  0.110- 130 1.93 178 1.93 131 1.93 179 1.93 176 1.96 177 1.96
  58  0.500  0.750  0.110-  98 1.93 113 1.93 160 1.93 176 1.93 127 1.96 182 1.96
  59  0.000  0.875  0.360-  71 1.93 118 1.93 135 1.93 183 1.93 180 1.96 117 1.96
  60  0.750  0.750  0.360- 165 1.93 181 1.93 180 1.93 164 1.93 179 1.96 186 1.96
  61  0.750  0.875  0.610- 138 1.93 186 1.93 139 1.93 187 1.93 184 1.96 185 1.96
  62  0.500  0.750  0.610- 105 1.93 121 1.93 168 1.93 184 1.93 119 1.96 190 1.96
  63  0.000  0.875  0.860-  79 1.93 126 1.93 143 1.93 191 1.93 188 1.96 125 1.96
  64  0.750  0.750  0.860- 173 1.93 189 1.93 188 1.93 172 1.93 187 1.96 178 1.96
  65  0.098  0.125  0.110-   2 1.93  10 1.93   1 1.96
  66  0.402  0.125  0.110-  34 1.93  42 1.93   1 1.96
  67  0.250  0.000  0.012-   1 1.93  25 1.93   8 1.96
  68  0.250  0.000  0.208-   1 1.93  25 1.93   4 1.96
  69  0.348  0.125  0.360-   4 1.93  12 1.93   3 1.96
  70  0.152  0.125  0.360-   4 1.93  12 1.93  35 1.96
  71  0.000  0.000  0.262-  35 1.93  59 1.93   2 1.96
  72  0.500  0.000  0.458-   3 1.93  27 1.93  38 1.96
  73  0.098  0.125  0.610-   6 1.93  14 1.93   5 1.96
  74  0.402  0.125  0.610-  38 1.93  46 1.93   5 1.96
  75  0.250  0.000  0.512-   5 1.93  29 1.93   4 1.96
  76  0.250  0.000  0.708-   5 1.93  29 1.93   8 1.96
  77  0.348  0.125  0.860-   8 1.93  16 1.93   7 1.96
  78  0.152  0.125  0.860-   8 1.93  16 1.93  39 1.96
  79  0.000  0.000  0.762-  39 1.93  63 1.93   6 1.96
  80  0.500  0.000  0.958-   7 1.93  31 1.93  34 1.96
  81  0.098  0.375  0.110-  10 1.93  18 1.93   9 1.96
  82  0.402  0.375  0.110-  42 1.93  50 1.93   9 1.96
  83  0.250  0.250  0.012-   1 1.93   9 1.93  16 1.96
  84  0.250  0.250  0.208-   1 1.93   9 1.93  12 1.96
  85  0.348  0.375  0.360-  12 1.93  20 1.93  11 1.96
  86  0.152  0.375  0.360-  12 1.93  20 1.93  43 1.96
  87  0.000  0.250  0.262-  35 1.93  43 1.93  10 1.96
  88  0.500  0.250  0.458-   3 1.93  11 1.93  46 1.96
  89  0.098  0.375  0.610-  14 1.93  22 1.93  13 1.96
  90  0.402  0.375  0.610-  46 1.93  54 1.93  13 1.96
  91  0.250  0.250  0.512-   5 1.93  13 1.93  12 1.96
  92  0.250  0.250  0.708-   5 1.93  13 1.93  16 1.96
  93  0.348  0.375  0.860-  16 1.93  24 1.93  15 1.96
  94  0.152  0.375  0.860-  16 1.93  24 1.93  47 1.96
  95  0.000  0.250  0.762-  39 1.93  47 1.93  14 1.96
  96  0.500  0.250  0.958-   7 1.93  15 1.93  42 1.96
  97  0.098  0.625  0.110-  18 1.93  26 1.93  17 1.96
  98  0.402  0.625  0.110-  50 1.93  58 1.93  17 1.96
  99  0.250  0.500  0.012-   9 1.93  17 1.93  24 1.96
 100  0.250  0.500  0.208-   9 1.93  17 1.93  20 1.96
 101  0.348  0.625  0.360-  20 1.93  28 1.93  19 1.96
 102  0.152  0.625  0.360-  20 1.93  28 1.93  51 1.96
 103  0.000  0.500  0.262-  43 1.93  51 1.93  18 1.96
 104  0.098  0.625  0.610-  22 1.93  30 1.93  21 1.96
 105  0.402  0.625  0.610-  54 1.93  62 1.93  21 1.96
 106  0.250  0.500  0.512-  13 1.93  21 1.93  20 1.96
 107  0.250  0.500  0.708-  13 1.93  21 1.93  24 1.96
 108  0.348  0.625  0.860-  24 1.93  32 1.93  23 1.96
 109  0.152  0.625  0.860-  24 1.93  32 1.93  55 1.96
 110  0.000  0.500  0.762-  47 1.93  55 1.93  22 1.96
 111  0.500  0.500  0.958-  15 1.93  23 1.93  50 1.96
 112  0.098  0.875  0.110-   2 1.93  26 1.93  25 1.96
 113  0.402  0.875  0.110-  34 1.93  58 1.93  25 1.96
 114  0.250  0.750  0.012-  17 1.93  25 1.93  32 1.96
 115  0.250  0.750  0.208-  17 1.93  25 1.93  28 1.96
 116  0.348  0.875  0.360-   4 1.93  28 1.93  27 1.96
 117  0.152  0.875  0.360-   4 1.93  28 1.93  59 1.96
 118  0.000  0.750  0.262-  51 1.93  59 1.93  26 1.96
 119  0.500  0.750  0.458-  19 1.93  27 1.93  62 1.96
 120  0.098  0.875  0.610-   6 1.93  30 1.93  29 1.96
 121  0.402  0.875  0.610-  38 1.93  62 1.93  29 1.96
 122  0.250  0.750  0.512-  21 1.93  29 1.93  28 1.96
 123  0.250  0.750  0.708-  21 1.93  29 1.93  32 1.96
 124  0.348  0.875  0.860-   8 1.93  32 1.93  31 1.96
 125  0.152  0.875  0.860-   8 1.93  32 1.93  63 1.96
 126  0.000  0.750  0.762-  55 1.93  63 1.93  30 1.96
 127  0.500  0.750  0.958-  23 1.93  31 1.93  58 1.96
 128  0.598  0.125  0.110-  34 1.93  42 1.93  33 1.96
 129  0.902  0.125  0.110-   2 1.93  10 1.93  33 1.96
 130  0.750  0.000  0.012-  33 1.93  57 1.93  40 1.96
 131  0.750  0.000  0.208-  33 1.93  57 1.93  36 1.96
 132  0.848  0.125  0.360-  36 1.93  44 1.93  35 1.96
 133  0.652  0.125  0.360-  36 1.93  44 1.93   3 1.96
 134  0.500  0.000  0.262-   3 1.93  27 1.93  34 1.96
 135  0.000  0.000  0.458-  35 1.93  59 1.93   6 1.96
 136  0.598  0.125  0.610-  38 1.93  46 1.93  37 1.96
 137  0.902  0.125  0.610-   6 1.93  14 1.93  37 1.96
 138  0.750  0.000  0.512-  37 1.93  61 1.93  36 1.96
 139  0.750  0.000  0.708-  37 1.93  61 1.93  40 1.96
 140  0.848  0.125  0.860-  40 1.93  48 1.93  39 1.96
 141  0.652  0.125  0.860-  40 1.93  48 1.93   7 1.96
 142  0.500  0.000  0.762-   7 1.93  31 1.93  38 1.96
 143  0.000  0.000  0.958-  39 1.93  63 1.93   2 1.96
 144  0.598  0.375  0.110-  42 1.93  50 1.93  41 1.96
 145  0.902  0.375  0.110-  10 1.93  18 1.93  41 1.96
 146  0.750  0.250  0.012-  33 1.93  41 1.93  48 1.96
 147  0.750  0.250  0.208-  33 1.93  41 1.93  44 1.96
 148  0.848  0.375  0.360-  44 1.93  52 1.93  43 1.96
 149  0.652  0.375  0.360-  44 1.93  52 1.93  11 1.96
 150  0.500  0.250  0.262-   3 1.93  11 1.93  42 1.96
 151  0.000  0.250  0.458-  35 1.93  43 1.93  14 1.96
 152  0.598  0.375  0.610-  46 1.93  54 1.93  45 1.96
 153  0.902  0.375  0.610-  14 1.93  22 1.93  45 1.96
 154  0.750  0.250  0.512-  37 1.93  45 1.93  44 1.96
 155  0.750  0.250  0.708-  37 1.93  45 1.93  48 1.96
 156  0.848  0.375  0.860-  48 1.93  56 1.93  47 1.96
 157  0.652  0.375  0.860-  48 1.93  56 1.93  15 1.96
 158  0.500  0.250  0.762-   7 1.93  15 1.93  46 1.96
 159  0.000  0.250  0.958-  39 1.93  47 1.93  10 1.96
 160  0.598  0.625  0.110-  50 1.93  58 1.93  49 1.96
 161  0.902  0.625  0.110-  18 1.93  26 1.93  49 1.96
 162  0.750  0.500  0.012-  41 1.93  49 1.93  56 1.96
 163  0.750  0.500  0.208-  41 1.93  49 1.93  52 1.96
 164  0.848  0.625  0.360-  52 1.93  60 1.93  51 1.96
 165  0.652  0.625  0.360-  52 1.93  60 1.93  19 1.96
 166  0.500  0.500  0.262-  11 1.93  19 1.93  50 1.96
 167  0.000  0.500  0.458-  43 1.93  51 1.93  22 1.96
 168  0.598  0.625  0.610-  54 1.93  62 1.93  53 1.96
 169  0.902  0.625  0.610-  22 1.93  30 1.93  53 1.96
 170  0.750  0.500  0.512-  45 1.93  53 1.93  52 1.96
 171  0.750  0.500  0.708-  45 1.93  53 1.93  56 1.96
 172  0.848  0.625  0.860-  56 1.93  64 1.93  55 1.96
 173  0.652  0.625  0.860-  56 1.93  64 1.93  23 1.96
 174  0.500  0.500  0.762-  15 1.93  23 1.93  54 1.96
 175  0.000  0.500  0.958-  47 1.93  55 1.93  18 1.96
 176  0.598  0.875  0.110-  34 1.93  58 1.93  57 1.96
 177  0.902  0.875  0.110-   2 1.93  26 1.93  57 1.96
 178  0.750  0.750  0.012-  49 1.93  57 1.93  64 1.96
 179  0.750  0.750  0.208-  49 1.93  57 1.93  60 1.96
 180  0.848  0.875  0.360-  36 1.93  60 1.93  59 1.96
 181  0.652  0.875  0.360-  36 1.93  60 1.93  27 1.96
 182  0.500  0.750  0.262-  19 1.93  27 1.93  58 1.96
 183  0.000  0.750  0.458-  51 1.93  59 1.93  30 1.96
 184  0.598  0.875  0.610-  38 1.93  62 1.93  61 1.96
 185  0.902  0.875  0.610-   6 1.93  30 1.93  61 1.96
 186  0.750  0.750  0.512-  53 1.93  61 1.93  60 1.96
 187  0.750  0.750  0.708-  53 1.93  61 1.93  64 1.96
 188  0.848  0.875  0.860-  40 1.93  64 1.93  63 1.96
 189  0.652  0.875  0.860-  40 1.93  64 1.93  31 1.96
 190  0.500  0.750  0.762-  23 1.93  31 1.93  62 1.96
 191  0.000  0.750  0.958-  55 1.93  63 1.93  26 1.96
 

IMPORTANT INFORMATION: All symmetrisations will be switched off!
NOSYMM: (Re-)initialisation of all symmetry stuff for point group C_1.


----------------------------------------------------------------------------------------

                                     Primitive cell                                     

  volume of cell :    1939.6039

  direct lattice vectors                    reciprocal lattice vectors
    12.881025995  0.000000000  0.000000000     0.077633567  0.000000000  0.000000000
     0.000000000 11.689936215  0.000000000     0.000000000  0.085543666  0.000000000
     0.000000000  0.000000000 12.881025995     0.000000000  0.000000000  0.077633567

  length of vectors
    12.881025995 11.689936215 12.881025995     0.077633567  0.085543666  0.077633567

  position of ions in fractional coordinates (direct lattice)
     0.250000000  0.125000000  0.109790444
     0.000000000  0.000000000  0.109790444
     0.500000000  0.125000000  0.359790444
     0.250000000  0.000000000  0.359790444
     0.250000000  0.125000000  0.609790444
     0.000000000  0.000000000  0.609790444
     0.500000000  0.125000000  0.859790444
     0.250000000  0.000000000  0.859790444
     0.250000000  0.375000000  0.109790444
     0.000000000  0.250000000  0.109790444
     0.500000000  0.375000000  0.359790444
     0.250000000  0.250000000  0.359790444
     0.250000000  0.375000000  0.609790444
     0.000000000  0.250000000  0.609790444
     0.500000000  0.375000000  0.859790444
     0.250000000  0.250000000  0.859790444
     0.250000000  0.625000000  0.109790444
     0.000000000  0.500000000  0.109790444
     0.500000000  0.625000000  0.359790444
     0.250000000  0.500000000  0.359790444
     0.250000000  0.625000000  0.609790444
     0.000000000  0.500000000  0.609790444
     0.500000000  0.625000000  0.859790444
     0.250000000  0.500000000  0.859790444
     0.250000000  0.875000000  0.109790444
     0.000000000  0.750000000  0.109790444
     0.500000000  0.875000000  0.359790444
     0.250000000  0.750000000  0.359790444
     0.250000000  0.875000000  0.609790444
     0.000000000  0.750000000  0.609790444
     0.500000000  0.875000000  0.859790444
     0.250000000  0.750000000  0.859790444
     0.750000000  0.125000000  0.109790444
     0.500000000  0.000000000  0.109790444
     0.000000000  0.125000000  0.359790444
     0.750000000  0.000000000  0.359790444
     0.750000000  0.125000000  0.609790444
     0.500000000  0.000000000  0.609790444
     0.000000000  0.125000000  0.859790444
     0.750000000  0.000000000  0.859790444
     0.750000000  0.375000000  0.109790444
     0.500000000  0.250000000  0.109790444
     0.000000000  0.375000000  0.359790444
     0.750000000  0.250000000  0.359790444
     0.750000000  0.375000000  0.609790444
     0.500000000  0.250000000  0.609790444
     0.000000000  0.375000000  0.859790444
     0.750000000  0.250000000  0.859790444
     0.750000000  0.625000000  0.109790444
     0.500000000  0.500000000  0.109790444
     0.000000000  0.625000000  0.359790444
     0.750000000  0.500000000  0.359790444
     0.750000000  0.625000000  0.609790444
     0.500000000  0.500000000  0.609790444
     0.000000000  0.625000000  0.859790444
     0.750000000  0.500000000  0.859790444
     0.750000000  0.875000000  0.109790444
     0.500000000  0.750000000  0.109790444
     0.000000000  0.875000000  0.359790444
     0.750000000  0.750000000  0.359790444
     0.750000000  0.875000000  0.609790444
     0.500000000  0.750000000  0.609790444
     0.000000000  0.875000000  0.859790444
     0.750000000  0.750000000  0.859790444
     0.098071057  0.125000000  0.109790444
     0.401928943  0.125000000  0.109790444
     0.250000000  0.000000000  0.011719387
     0.250000000  0.000000000  0.207861501
     0.348071057  0.125000000  0.359790444
     0.151928943  0.125000000  0.359790444
     0.000000000  0.000000000  0.261719387
     0.500000000  0.000000000  0.457861501
     0.098071057  0.125000000  0.609790444
     0.401928943  0.125000000  0.609790444
     0.250000000  0.000000000  0.511719387
     0.250000000  0.000000000  0.707861501
     0.348071057  0.125000000  0.859790444
     0.151928943  0.125000000  0.859790444
     0.000000000  0.000000000  0.761719387
     0.500000000  0.000000000  0.957861501
     0.098071057  0.375000000  0.109790444
     0.401928943  0.375000000  0.109790444
     0.250000000  0.250000000  0.011719387
     0.250000000  0.250000000  0.207861501
     0.348071057  0.375000000  0.359790444
     0.151928943  0.375000000  0.359790444
     0.000000000  0.250000000  0.261719387
     0.500000000  0.250000000  0.457861501
     0.098071057  0.375000000  0.609790444
     0.401928943  0.375000000  0.609790444
     0.250000000  0.250000000  0.511719387
     0.250000000  0.250000000  0.707861501
     0.348071057  0.375000000  0.859790444
     0.151928943  0.375000000  0.859790444
     0.000000000  0.250000000  0.761719387
     0.500000000  0.250000000  0.957861501
     0.098071057  0.625000000  0.109790444
     0.401928943  0.625000000  0.109790444
     0.250000000  0.500000000  0.011719387
     0.250000000  0.500000000  0.207861501
     0.348071057  0.625000000  0.359790444
     0.151928943  0.625000000  0.359790444
     0.000000000  0.500000000  0.261719387
     0.098071057  0.625000000  0.609790444
     0.401928943  0.625000000  0.609790444
     0.250000000  0.500000000  0.511719387
     0.250000000  0.500000000  0.707861501
     0.348071057  0.625000000  0.859790444
     0.151928943  0.625000000  0.859790444
     0.000000000  0.500000000  0.761719387
     0.500000000  0.500000000  0.957861501
     0.098071057  0.875000000  0.109790444
     0.401928943  0.875000000  0.109790444
     0.250000000  0.750000000  0.011719387
     0.250000000  0.750000000  0.207861501
     0.348071057  0.875000000  0.359790444
     0.151928943  0.875000000  0.359790444
     0.000000000  0.750000000  0.261719387
     0.500000000  0.750000000  0.457861501
     0.098071057  0.875000000  0.609790444
     0.401928943  0.875000000  0.609790444
     0.250000000  0.750000000  0.511719387
     0.250000000  0.750000000  0.707861501
     0.348071057  0.875000000  0.859790444
     0.151928943  0.875000000  0.859790444
     0.000000000  0.750000000  0.761719387
     0.500000000  0.750000000  0.957861501
     0.598071057  0.125000000  0.109790444
     0.901928943  0.125000000  0.109790444
     0.750000000  0.000000000  0.011719387
     0.750000000  0.000000000  0.207861501
     0.848071057  0.125000000  0.359790444
     0.651928943  0.125000000  0.359790444
     0.500000000  0.000000000  0.261719387
     0.000000000  0.000000000  0.457861501
     0.598071057  0.125000000  0.609790444
     0.901928943  0.125000000  0.609790444
     0.750000000  0.000000000  0.511719387
     0.750000000  0.000000000  0.707861501
     0.848071057  0.125000000  0.859790444
     0.651928943  0.125000000  0.859790444
     0.500000000  0.000000000  0.761719387
     0.000000000  0.000000000  0.957861501
     0.598071057  0.375000000  0.109790444
     0.901928943  0.375000000  0.109790444
     0.750000000  0.250000000  0.011719387
     0.750000000  0.250000000  0.207861501
     0.848071057  0.375000000  0.359790444
     0.651928943  0.375000000  0.359790444
     0.500000000  0.250000000  0.261719387
     0.000000000  0.250000000  0.457861501
     0.598071057  0.375000000  0.609790444
     0.901928943  0.375000000  0.609790444
     0.750000000  0.250000000  0.511719387
     0.750000000  0.250000000  0.707861501
     0.848071057  0.375000000  0.859790444
     0.651928943  0.375000000  0.859790444
     0.500000000  0.250000000  0.761719387
     0.000000000  0.250000000  0.957861501
     0.598071057  0.625000000  0.109790444
     0.901928943  0.625000000  0.109790444
     0.750000000  0.500000000  0.011719387
     0.750000000  0.500000000  0.207861501
     0.848071057  0.625000000  0.359790444
     0.651928943  0.625000000  0.359790444
     0.500000000  0.500000000  0.261719387
     0.000000000  0.500000000  0.457861501
     0.598071057  0.625000000  0.609790444
     0.901928943  0.625000000  0.609790444
     0.750000000  0.500000000  0.511719387
     0.750000000  0.500000000  0.707861501
     0.848071057  0.625000000  0.859790444
     0.651928943  0.625000000  0.859790444
     0.500000000  0.500000000  0.761719387
     0.000000000  0.500000000  0.957861501
     0.598071057  0.875000000  0.109790444
     0.901928943  0.875000000  0.109790444
     0.750000000  0.750000000  0.011719387
     0.750000000  0.750000000  0.207861501
     0.848071057  0.875000000  0.359790444
     0.651928943  0.875000000  0.359790444
     0.500000000  0.750000000  0.261719387
     0.000000000  0.750000000  0.457861501
     0.598071057  0.875000000  0.609790444
     0.901928943  0.875000000  0.609790444
     0.750000000  0.750000000  0.511719387
     0.750000000  0.750000000  0.707861501
     0.848071057  0.875000000  0.859790444
     0.651928943  0.875000000  0.859790444
     0.500000000  0.750000000  0.761719387
     0.000000000  0.750000000  0.957861501

  ion indices of the primitive-cell ions
   primitive index   ion index
                 1           1
                 2           2
                 3           3
                 4           4
                 5           5
                 6           6
                 7           7
                 8           8
                 9           9
                10          10
                11          11
                12          12
                13          13
                14          14
                15          15
                16          16
                17          17
                18          18
                19          19
                20          20
                21          21
                22          22
                23          23
                24          24
                25          25
                26          26
                27          27
                28          28
                29          29
                30          30
                31          31
                32          32
                33          33
                34          34
                35          35
                36          36
                37          37
                38          38
                39          39
                40          40
                41          41
                42          42
                43          43
                44          44
                45          45
                46          46
                47          47
                48          48
                49          49
                50          50
                51          51
                52          52
                53          53
                54          54
                55          55
                56          56
                57          57
                58          58
                59          59
                60          60
                61          61
                62          62
                63          63
                64          64
                65          65
                66          66
                67          67
                68          68
                69          69
                70          70
                71          71
                72          72
                73          73
                74          74
                75          75
                76          76
                77          77
                78          78
                79          79
                80          80
                81          81
                82          82
                83          83
                84          84
                85          85
                86          86
                87          87
                88          88
                89          89
                90          90
                91          91
                92          92
                93          93
                94          94
                95          95
                96          96
                97          97
                98          98
                99          99
               100         100
               101         101
               102         102
               103         103
               104         104
               105         105
               106         106
               107         107
               108         108
               109         109
               110         110
               111         111
               112         112
               113         113
               114         114
               115         115
               116         116
               117         117
               118         118
               119         119
               120         120
               121         121
               122         122
               123         123
               124         124
               125         125
               126         126
               127         127
               128         128
               129         129
               130         130
               131         131
               132         132
               133         133
               134         134
               135         135
               136         136
               137         137
               138         138
               139         139
               140         140
               141         141
               142         142
               143         143
               144         144
               145         145
               146         146
               147         147
               148         148
               149         149
               150         150
               151         151
               152         152
               153         153
               154         154
               155         155
               156         156
               157         157
               158         158
               159         159
               160         160
               161         161
               162         162
               163         163
               164         164
               165         165
               166         166
               167         167
               168         168
               169         169
               170         170
               171         171
               172         172
               173         173
               174         174
               175         175
               176         176
               177         177
               178         178
               179         179
               180         180
               181         181
               182         182
               183         183
               184         184
               185         185
               186         186
               187         187
               188         188
               189         189
               190         190
               191         191

----------------------------------------------------------------------------------------

 
 
 KPOINTS: pymatgen v2020.8.13 with grid density = 

Automatic generation of k-mesh.
 Grid dimensions read from file:
 generate k-points for:    2    2    2

 Generating k-lattice:

  Cartesian coordinates                     Fractional coordinates (reciprocal lattice)
     0.038816784  0.000000000  0.000000000     0.500000000  0.000000000  0.000000000
     0.000000000  0.042771833  0.000000000     0.000000000  0.500000000  0.000000000
     0.000000000  0.000000000  0.038816784     0.000000000  0.000000000  0.500000000

  Length of vectors
     0.038816784  0.042771833  0.038816784

  Shift w.r.t. Gamma in fractional coordinates (k-lattice)
     0.000000000  0.000000000  0.000000000

 
 Subroutine IBZKPT returns following result:
 ===========================================
 
 Found      8 irreducible k-points:
 
 Following reciprocal coordinates:
            Coordinates               Weight
  0.000000  0.000000  0.000000      1.000000
  0.500000  0.000000  0.000000      1.000000
  0.000000  0.000000  0.500000      1.000000
  0.000000  0.500000  0.000000      1.000000
  0.500000  0.500000  0.000000      1.000000
  0.000000  0.500000  0.500000      1.000000
  0.500000  0.000000  0.500000      1.000000
  0.500000  0.500000  0.500000      1.000000
 
 Following cartesian coordinates:
            Coordinates               Weight
  0.000000  0.000000  0.000000      1.000000
  0.038817  0.000000  0.000000      1.000000
  0.000000  0.000000  0.038817      1.000000
  0.000000  0.042772  0.000000      1.000000
  0.038817  0.042772  0.000000      1.000000
  0.000000  0.042772  0.038817      1.000000
  0.038817  0.000000  0.038817      1.000000
  0.038817  0.042772  0.038817      1.000000
 


--------------------------------------------------------------------------------------------------------




 Dimension of arrays:
   k-points           NKPTS =      8   k-points in BZ     NKDIM =      8   number of bands    NBANDS=    918
   number of dos      NEDOS =    301   number of ions     NIONS =    191
   non local maximal  LDIM  =      6   non local SUM 2l+1 LMDIM =     18
   total plane-waves  NPLWV = 829440
   max r-space proj   IRMAX =   3735   max aug-charges    IRDMAX=  16800
   dimension x,y,z NGX =    96 NGY =   90 NGZ =   96
   dimension x,y,z NGXF=   192 NGYF=  180 NGZF=  192
   support grid    NGXF=   192 NGYF=  180 NGZF=  192
   ions per type =              64 127
   NGX,Y,Z   is equivalent  to a cutoff of  12.39, 12.80, 12.39 a.u.
   NGXF,Y,Z  is equivalent  to a cutoff of  24.78, 25.60, 24.78 a.u.

 SYSTEM =  TiO2-rutile                             
 POSCAR =  Ti  O                                   

 Startparameter for this run:
   NWRITE =      2    write-flag & timer
   PREC   = accura    normal or accurate (medium, high low for compatibility)
   ISTART =      0    job   : 0-new  1-cont  2-samecut
   ICHARG =      2    charge: 1-file 2-atom 10-const
   ISPIN  =      1    spin polarized calculation?
   LNONCOLLINEAR =      F non collinear calculations
   LSORBIT =      F    spin-orbit coupling
   INIWAV =      1    electr: 0-lowe 1-rand  2-diag
   LASPH  =      T    aspherical Exc in radial PAW
   METAGGA=      F    non-selfconsistent MetaGGA calc.

 Electronic Relaxation 1
   ENCUT  =  500.0 eV  36.75 Ry    6.06 a.u.  23.49 21.31 23.49*2*pi/ulx,y,z
   ENINI  =  500.0     initial cutoff
   ENAUG  =  605.4 eV  augmentation charge cutoff
   NELM   =    500;   NELMIN=  4; NELMDL=  0     # of ELM steps 
   EDIFF  = 0.1E-04   stopping-criterion for ELM
   LREAL  =      T    real-space projection
   NLSPLINE    = F    spline interpolate recip. space projectors
   LCOMPAT=      F    compatible to vasp.4.4
   GGA_COMPAT  = T    GGA compatible to vasp.4.4-vasp.4.6
   LMAXPAW     = -100 max onsite density
   LMAXMIX     =    2 max onsite mixed and CHGCAR
   VOSKOWN=      0    Vosko Wilk Nusair interpolation
   ROPT   =   -0.00025  -0.00025
 Ionic relaxation
   EDIFFG = -.1E-01   stopping-criterion for IOM
   NSW    =      0    number of steps for IOM
   NBLOCK =      1;   KBLOCK =      1    inner block; outer block 
   IBRION =     -1    ionic relax: 0-MD 1-quasi-New 2-CG
   NFREE  =      0    steps in history (QN), initial steepest desc. (CG)
   ISIF   =      2    stress and relaxation
   IWAVPR =     10    prediction:  0-non 1-charg 2-wave 3-comb
   ISYM   =      0    0-nonsym 1-usesym 2-fastsym
   LCORR  =      T    Harris-Foulkes like correction to forces

   POTIM  = 0.5000    time-step for ionic-motion
   TEIN   =    0.0    initial temperature
   TEBEG  =    0.0;   TEEND  =   0.0 temperature during run
   SMASS  =  -3.00    Nose mass-parameter (am)
   estimated Nose-frequenzy (Omega)   =  0.10E-29 period in steps = 0.13E+47 mass=  -0.379E-26a.u.
   SCALEE = 1.0000    scale energy and forces
   NPACO  =    256;   APACO  = 16.0  distance and # of slots for P.C.
   PSTRESS=    0.0 pullay stress

  Mass of Ions in am
   POMASS =  47.88 16.00
  Ionic Valenz
   ZVAL   =  12.00  6.00
  Atomic Wigner-Seitz radii
   RWIGS  =  -1.00 -1.00
  virtual crystal weights 
   VCA    =   1.00  1.00
   NELECT =    1530.0000    total number of electrons
   NUPDOWN=      -1.0000    fix difference up-down

 DOS related values:
   EMIN   =  10.00;   EMAX   =-10.00  energy-range for DOS
   EFERMI =   0.00
   ISMEAR =     0;   SIGMA  =   0.05  broadening in eV -4-tet -1-fermi 0-gaus

 Electronic relaxation 2 (details)
   IALGO  =     68    algorithm
   LDIAG  =      T    sub-space diagonalisation (order eigenvalues)
   LSUBROT=      F    optimize rotation matrix (better conditioning)
   TURBO    =      0    0=normal 1=particle mesh
   IRESTART =      0    0=no restart 2=restart with 2 vectors
   NREBOOT  =      0    no. of reboots
   NMIN     =      0    reboot dimension
   EREF     =   0.00    reference energy to select bands
   IMIX   =      4    mixing-type and parameters
     AMIX     =   0.40;   BMIX     =  1.00
     AMIX_MAG =   1.60;   BMIX_MAG =  1.00
     AMIN     =   0.10
     WC   =   100.;   INIMIX=   1;  MIXPRE=   1;  MAXMIX= -45

 Intra band minimization:
   WEIMIN = 0.0000     energy-eigenvalue tresh-hold
   EBREAK =  0.27E-08  absolut break condition
   DEPER  =   0.30     relativ break condition  

   TIME   =   0.40     timestep for ELM

  volume/ion in A,a.u.               =      10.15        68.53
  Fermi-wavevector in a.u.,A,eV,Ry     =   1.512636  2.858467 31.131030  2.288066
  Thomas-Fermi vector in A             =   2.622533
 
 Write flags
   LWAVE        =      F    write WAVECAR
   LDOWNSAMPLE  =      F    k-point downsampling of WAVECAR
   LCHARG       =      F    write CHGCAR
   LVTOT        =      F    write LOCPOT, total local potential
   LVHAR        =      F    write LOCPOT, Hartree potential only
   LELF         =      F    write electronic localiz. function (ELF)
   LORBIT       =     11    0 simple, 1 ext, 2 COOP (PROOUT), +10 PAW based schemes


 Dipole corrections
   LMONO  =      F    monopole corrections only (constant potential shift)
   LDIPOL =      F    correct potential (dipole corrections)
   IDIPOL =      0    1-x, 2-y, 3-z, 4-all directions 
   EPSILON=  1.0000000 bulk dielectric constant

 Exchange correlation treatment:
   GGA     =    --    GGA type
   LEXCH   =     2    internal setting for exchange type
   VOSKOWN=      0    Vosko Wilk Nusair interpolation
   LHFCALC =     F    Hartree Fock is set to
   LHFONE  =     F    Hartree Fock one center treatment
   AEXX    =    0.0000 exact exchange contribution

 Linear response parameters
   LEPSILON=     F    determine dielectric tensor
   LRPA    =     F    only Hartree local field effects (RPA)
   LNABLA  =     F    use nabla operator in PAW spheres
   LVEL    =     F    velocity operator in full k-point grid
   LINTERFAST=   F  fast interpolation
   KINTER  =     0    interpolate to denser k-point grid
   CSHIFT  =0.1000    complex shift for real part using Kramers Kronig
   OMEGAMAX=  -1.0    maximum frequency
   DEG_THRESHOLD= 0.2000000E-02 threshold for treating states as degnerate
   RTIME   =   -0.100 relaxation time in fs
  (WPLASMAI=    0.000 imaginary part of plasma frequency in eV, 0.658/RTIME)
   DFIELD  = 0.0000000 0.0000000 0.0000000 field for delta impulse in time
 
 Orbital magnetization related:
   ORBITALMAG=     F  switch on orbital magnetization
   LCHIMAG   =     F  perturbation theory with respect to B field
   DQ        =  0.001000  dq finite difference perturbation B field
   LLRAUG    =     F  two centre corrections for induced B field



--------------------------------------------------------------------------------------------------------


 Static calculation
 charge density and potential will be updated during run
 non-spin polarized calculation
 RMM-DIIS sequential band-by-band and
  variant of blocked Davidson during initial phase
 perform sub-space diagonalisation
    before iterative eigenvector-optimisation
 modified Broyden-mixing scheme, WC =      100.0
 initial mixing is a Kerker type mixing with AMIX =  0.4000 and BMIX =      1.0000
 Hartree-type preconditioning will be used
 using additional bands          153
 real space projection scheme for non local part
 use partial core corrections
 calculate Harris-corrections to forces 
   (improved forces if not selfconsistent)
 use of overlap-Matrix (Vanderbilt PP)
 Gauss-broadening in eV      SIGMA  =   0.05


--------------------------------------------------------------------------------------------------------


  energy-cutoff  :      500.00
  volume of cell :     1939.60
      direct lattice vectors                 reciprocal lattice vectors
    12.881025995  0.000000000  0.000000000     0.077633567  0.000000000  0.000000000
     0.000000000 11.689936215  0.000000000     0.000000000  0.085543666  0.000000000
     0.000000000  0.000000000 12.881025995     0.000000000  0.000000000  0.077633567

  length of vectors
    12.881025995 11.689936215 12.881025995     0.077633567  0.085543666  0.077633567


 
 k-points in units of 2pi/SCALE and weight: pymatgen v2020.8.13 with grid density = 
   0.00000000  0.00000000  0.00000000       0.125
   0.03881678  0.00000000  0.00000000       0.125
   0.00000000  0.00000000  0.03881678       0.125
   0.00000000  0.04277183  0.00000000       0.125
   0.03881678  0.04277183  0.00000000       0.125
   0.00000000  0.04277183  0.03881678       0.125
   0.03881678  0.00000000  0.03881678       0.125
   0.03881678  0.04277183  0.03881678       0.125
 
 k-points in reciprocal lattice and weights: pymatgen v2020.8.13 with grid density = 
   0.00000000  0.00000000  0.00000000       0.125
   0.50000000  0.00000000  0.00000000       0.125
   0.00000000  0.00000000  0.50000000       0.125
   0.00000000  0.50000000  0.00000000       0.125
   0.50000000  0.50000000  0.00000000       0.125
   0.00000000  0.50000000  0.50000000       0.125
   0.50000000  0.00000000  0.50000000       0.125
   0.50000000  0.50000000  0.50000000       0.125
 
 position of ions in fractional coordinates (direct lattice) 
   0.25000000  0.12500000  0.10979044
   0.00000000  0.00000000  0.10979044
   0.50000000  0.12500000  0.35979044
   0.25000000  0.00000000  0.35979044
   0.25000000  0.12500000  0.60979044
   0.00000000  0.00000000  0.60979044
   0.50000000  0.12500000  0.85979044
   0.25000000  0.00000000  0.85979044
   0.25000000  0.37500000  0.10979044
   0.00000000  0.25000000  0.10979044
   0.50000000  0.37500000  0.35979044
   0.25000000  0.25000000  0.35979044
   0.25000000  0.37500000  0.60979044
   0.00000000  0.25000000  0.60979044
   0.50000000  0.37500000  0.85979044
   0.25000000  0.25000000  0.85979044
   0.25000000  0.62500000  0.10979044
   0.00000000  0.50000000  0.10979044
   0.50000000  0.62500000  0.35979044
   0.25000000  0.50000000  0.35979044
   0.25000000  0.62500000  0.60979044
   0.00000000  0.50000000  0.60979044
   0.50000000  0.62500000  0.85979044
   0.25000000  0.50000000  0.85979044
   0.25000000  0.87500000  0.10979044
   0.00000000  0.75000000  0.10979044
   0.50000000  0.87500000  0.35979044
   0.25000000  0.75000000  0.35979044
   0.25000000  0.87500000  0.60979044
   0.00000000  0.75000000  0.60979044
   0.50000000  0.87500000  0.85979044
   0.25000000  0.75000000  0.85979044
   0.75000000  0.12500000  0.10979044
   0.50000000  0.00000000  0.10979044
   0.00000000  0.12500000  0.35979044
   0.75000000  0.00000000  0.35979044
   0.75000000  0.12500000  0.60979044
   0.50000000  0.00000000  0.60979044
   0.00000000  0.12500000  0.85979044
   0.75000000  0.00000000  0.85979044
   0.75000000  0.37500000  0.10979044
   0.50000000  0.25000000  0.10979044
   0.00000000  0.37500000  0.35979044
   0.75000000  0.25000000  0.35979044
   0.75000000  0.37500000  0.60979044
   0.50000000  0.25000000  0.60979044
   0.00000000  0.37500000  0.85979044
   0.75000000  0.25000000  0.85979044
   0.75000000  0.62500000  0.10979044
   0.50000000  0.50000000  0.10979044
   0.00000000  0.62500000  0.35979044
   0.75000000  0.50000000  0.35979044
   0.75000000  0.62500000  0.60979044
   0.50000000  0.50000000  0.60979044
   0.00000000  0.62500000  0.85979044
   0.75000000  0.50000000  0.85979044
   0.75000000  0.87500000  0.10979044
   0.50000000  0.75000000  0.10979044
   0.00000000  0.87500000  0.35979044
   0.75000000  0.75000000  0.35979044
   0.75000000  0.87500000  0.60979044
   0.50000000  0.75000000  0.60979044
   0.00000000  0.87500000  0.85979044
   0.75000000  0.75000000  0.85979044
   0.09807106  0.12500000  0.10979044
   0.40192894  0.12500000  0.10979044
   0.25000000  0.00000000  0.01171939
   0.25000000  0.00000000  0.20786150
   0.34807106  0.12500000  0.35979044
   0.15192894  0.12500000  0.35979044
   0.00000000  0.00000000  0.26171939
   0.50000000  0.00000000  0.45786150
   0.09807106  0.12500000  0.60979044
   0.40192894  0.12500000  0.60979044
   0.25000000  0.00000000  0.51171939
   0.25000000  0.00000000  0.70786150
   0.34807106  0.12500000  0.85979044
   0.15192894  0.12500000  0.85979044
   0.00000000  0.00000000  0.76171939
   0.50000000  0.00000000  0.95786150
   0.09807106  0.37500000  0.10979044
   0.40192894  0.37500000  0.10979044
   0.25000000  0.25000000  0.01171939
   0.25000000  0.25000000  0.20786150
   0.34807106  0.37500000  0.35979044
   0.15192894  0.37500000  0.35979044
   0.00000000  0.25000000  0.26171939
   0.50000000  0.25000000  0.45786150
   0.09807106  0.37500000  0.60979044
   0.40192894  0.37500000  0.60979044
   0.25000000  0.25000000  0.51171939
   0.25000000  0.25000000  0.70786150
   0.34807106  0.37500000  0.85979044
   0.15192894  0.37500000  0.85979044
   0.00000000  0.25000000  0.76171939
   0.50000000  0.25000000  0.95786150
   0.09807106  0.62500000  0.10979044
   0.40192894  0.62500000  0.10979044
   0.25000000  0.50000000  0.01171939
   0.25000000  0.50000000  0.20786150
   0.34807106  0.62500000  0.35979044
   0.15192894  0.62500000  0.35979044
   0.00000000  0.50000000  0.26171939
   0.09807106  0.62500000  0.60979044
   0.40192894  0.62500000  0.60979044
   0.25000000  0.50000000  0.51171939
   0.25000000  0.50000000  0.70786150
   0.34807106  0.62500000  0.85979044
   0.15192894  0.62500000  0.85979044
   0.00000000  0.50000000  0.76171939
   0.50000000  0.50000000  0.95786150
   0.09807106  0.87500000  0.10979044
   0.40192894  0.87500000  0.10979044
   0.25000000  0.75000000  0.01171939
   0.25000000  0.75000000  0.20786150
   0.34807106  0.87500000  0.35979044
   0.15192894  0.87500000  0.35979044
   0.00000000  0.75000000  0.26171939
   0.50000000  0.75000000  0.45786150
   0.09807106  0.87500000  0.60979044
   0.40192894  0.87500000  0.60979044
   0.25000000  0.75000000  0.51171939
   0.25000000  0.75000000  0.70786150
   0.34807106  0.87500000  0.85979044
   0.15192894  0.87500000  0.85979044
   0.00000000  0.75000000  0.76171939
   0.50000000  0.75000000  0.95786150
   0.59807106  0.12500000  0.10979044
   0.90192894  0.12500000  0.10979044
   0.75000000  0.00000000  0.01171939
   0.75000000  0.00000000  0.20786150
   0.84807106  0.12500000  0.35979044
   0.65192894  0.12500000  0.35979044
   0.50000000  0.00000000  0.26171939
   0.00000000  0.00000000  0.45786150
   0.59807106  0.12500000  0.60979044
   0.90192894  0.12500000  0.60979044
   0.75000000  0.00000000  0.51171939
   0.75000000  0.00000000  0.70786150
   0.84807106  0.12500000  0.85979044
   0.65192894  0.12500000  0.85979044
   0.50000000  0.00000000  0.76171939
   0.00000000  0.00000000  0.95786150
   0.59807106  0.37500000  0.10979044
   0.90192894  0.37500000  0.10979044
   0.75000000  0.25000000  0.01171939
   0.75000000  0.25000000  0.20786150
   0.84807106  0.37500000  0.35979044
   0.65192894  0.37500000  0.35979044
   0.50000000  0.25000000  0.26171939
   0.00000000  0.25000000  0.45786150
   0.59807106  0.37500000  0.60979044
   0.90192894  0.37500000  0.60979044
   0.75000000  0.25000000  0.51171939
   0.75000000  0.25000000  0.70786150
   0.84807106  0.37500000  0.85979044
   0.65192894  0.37500000  0.85979044
   0.50000000  0.25000000  0.76171939
   0.00000000  0.25000000  0.95786150
   0.59807106  0.62500000  0.10979044
   0.90192894  0.62500000  0.10979044
   0.75000000  0.50000000  0.01171939
   0.75000000  0.50000000  0.20786150
   0.84807106  0.62500000  0.35979044
   0.65192894  0.62500000  0.35979044
   0.50000000  0.50000000  0.26171939
   0.00000000  0.50000000  0.45786150
   0.59807106  0.62500000  0.60979044
   0.90192894  0.62500000  0.60979044
   0.75000000  0.50000000  0.51171939
   0.75000000  0.50000000  0.70786150
   0.84807106  0.62500000  0.85979044
   0.65192894  0.62500000  0.85979044
   0.50000000  0.50000000  0.76171939
   0.00000000  0.50000000  0.95786150
   0.59807106  0.87500000  0.10979044
   0.90192894  0.87500000  0.10979044
   0.75000000  0.75000000  0.01171939
   0.75000000  0.75000000  0.20786150
   0.84807106  0.87500000  0.35979044
   0.65192894  0.87500000  0.35979044
   0.50000000  0.75000000  0.26171939
   0.00000000  0.75000000  0.45786150
   0.59807106  0.87500000  0.60979044
   0.90192894  0.87500000  0.60979044
   0.75000000  0.75000000  0.51171939
   0.75000000  0.75000000  0.70786150
   0.84807106  0.87500000  0.85979044
   0.65192894  0.87500000  0.85979044
   0.50000000  0.75000000  0.76171939
   0.00000000  0.75000000  0.95786150
 
 position of ions in cartesian coordinates  (Angst):
   3.22025650  1.46124203  1.41421356
   0.00000000  0.00000000  1.41421356
   6.44051300  1.46124203  4.63447006
   3.22025650  0.00000000  4.63447006
   3.22025650  1.46124203  7.85472656
   0.00000000  0.00000000  7.85472656
   6.44051300  1.46124203 11.07498306
   3.22025650  0.00000000 11.07498306
   3.22025650  4.38372608  1.41421356
   0.00000000  2.92248405  1.41421356
   6.44051300  4.38372608  4.63447006
   3.22025650  2.92248405  4.63447006
   3.22025650  4.38372608  7.85472656
   0.00000000  2.92248405  7.85472656
   6.44051300  4.38372608 11.07498306
   3.22025650  2.92248405 11.07498306
   3.22025650  7.30621013  1.41421356
   0.00000000  5.84496811  1.41421356
   6.44051300  7.30621013  4.63447006
   3.22025650  5.84496811  4.63447006
   3.22025650  7.30621013  7.85472656
   0.00000000  5.84496811  7.85472656
   6.44051300  7.30621013 11.07498306
   3.22025650  5.84496811 11.07498306
   3.22025650 10.22869419  1.41421356
   0.00000000  8.76745216  1.41421356
   6.44051300 10.22869419  4.63447006
   3.22025650  8.76745216  4.63447006
   3.22025650 10.22869419  7.85472656
   0.00000000  8.76745216  7.85472656
   6.44051300 10.22869419 11.07498306
   3.22025650  8.76745216 11.07498306
   9.66076950  1.46124203  1.41421356
   6.44051300  0.00000000  1.41421356
   0.00000000  1.46124203  4.63447006
   9.66076950  0.00000000  4.63447006
   9.66076950  1.46124203  7.85472656
   6.44051300  0.00000000  7.85472656
   0.00000000  1.46124203 11.07498306
   9.66076950  0.00000000 11.07498306
   9.66076950  4.38372608  1.41421356
   6.44051300  2.92248405  1.41421356
   0.00000000  4.38372608  4.63447006
   9.66076950  2.92248405  4.63447006
   9.66076950  4.38372608  7.85472656
   6.44051300  2.92248405  7.85472656
   0.00000000  4.38372608 11.07498306
   9.66076950  2.92248405 11.07498306
   9.66076950  7.30621013  1.41421356
   6.44051300  5.84496811  1.41421356
   0.00000000  7.30621013  4.63447006
   9.66076950  5.84496811  4.63447006
   9.66076950  7.30621013  7.85472656
   6.44051300  5.84496811  7.85472656
   0.00000000  7.30621013 11.07498306
   9.66076950  5.84496811 11.07498306
   9.66076950 10.22869419  1.41421356
   6.44051300  8.76745216  1.41421356
   0.00000000 10.22869419  4.63447006
   9.66076950  8.76745216  4.63447006
   9.66076950 10.22869419  7.85472656
   6.44051300  8.76745216  7.85472656
   0.00000000 10.22869419 11.07498306
   9.66076950  8.76745216 11.07498306
   1.26325584  1.46124203  1.41421356
   5.17725716  1.46124203  1.41421356
   3.22025650  0.00000000  0.15095772
   3.22025650  0.00000000  2.67746940
   4.48351234  1.46124203  4.63447006
   1.95700066  1.46124203  4.63447006
   0.00000000  0.00000000  3.37121422
   6.44051300  0.00000000  5.89772590
   1.26325584  1.46124203  7.85472656
   5.17725716  1.46124203  7.85472656
   3.22025650  0.00000000  6.59147072
   3.22025650  0.00000000  9.11798240
   4.48351234  1.46124203 11.07498306
   1.95700066  1.46124203 11.07498306
   0.00000000  0.00000000  9.81172722
   6.44051300  0.00000000 12.33823890
   1.26325584  4.38372608  1.41421356
   5.17725716  4.38372608  1.41421356
   3.22025650  2.92248405  0.15095772
   3.22025650  2.92248405  2.67746940
   4.48351234  4.38372608  4.63447006
   1.95700066  4.38372608  4.63447006
   0.00000000  2.92248405  3.37121422
   6.44051300  2.92248405  5.89772590
   1.26325584  4.38372608  7.85472656
   5.17725716  4.38372608  7.85472656
   3.22025650  2.92248405  6.59147072
   3.22025650  2.92248405  9.11798240
   4.48351234  4.38372608 11.07498306
   1.95700066  4.38372608 11.07498306
   0.00000000  2.92248405  9.81172722
   6.44051300  2.92248405 12.33823890
   1.26325584  7.30621013  1.41421356
   5.17725716  7.30621013  1.41421356
   3.22025650  5.84496811  0.15095772
   3.22025650  5.84496811  2.67746940
   4.48351234  7.30621013  4.63447006
   1.95700066  7.30621013  4.63447006
   0.00000000  5.84496811  3.37121422
   1.26325584  7.30621013  7.85472656
   5.17725716  7.30621013  7.85472656
   3.22025650  5.84496811  6.59147072
   3.22025650  5.84496811  9.11798240
   4.48351234  7.30621013 11.07498306
   1.95700066  7.30621013 11.07498306
   0.00000000  5.84496811  9.81172722
   6.44051300  5.84496811 12.33823890
   1.26325584 10.22869419  1.41421356
   5.17725716 10.22869419  1.41421356
   3.22025650  8.76745216  0.15095772
   3.22025650  8.76745216  2.67746940
   4.48351234 10.22869419  4.63447006
   1.95700066 10.22869419  4.63447006
   0.00000000  8.76745216  3.37121422
   6.44051300  8.76745216  5.89772590
   1.26325584 10.22869419  7.85472656
   5.17725716 10.22869419  7.85472656
   3.22025650  8.76745216  6.59147072
   3.22025650  8.76745216  9.11798240
   4.48351234 10.22869419 11.07498306
   1.95700066 10.22869419 11.07498306
   0.00000000  8.76745216  9.81172722
   6.44051300  8.76745216 12.33823890
   7.70376884  1.46124203  1.41421356
  11.61777016  1.46124203  1.41421356
   9.66076950  0.00000000  0.15095772
   9.66076950  0.00000000  2.67746940
  10.92402533  1.46124203  4.63447006
   8.39751366  1.46124203  4.63447006
   6.44051300  0.00000000  3.37121422
   0.00000000  0.00000000  5.89772590
   7.70376884  1.46124203  7.85472656
  11.61777016  1.46124203  7.85472656
   9.66076950  0.00000000  6.59147072
   9.66076950  0.00000000  9.11798240
  10.92402533  1.46124203 11.07498306
   8.39751366  1.46124203 11.07498306
   6.44051300  0.00000000  9.81172722
   0.00000000  0.00000000 12.33823890
   7.70376884  4.38372608  1.41421356
  11.61777016  4.38372608  1.41421356
   9.66076950  2.92248405  0.15095772
   9.66076950  2.92248405  2.67746940
  10.92402533  4.38372608  4.63447006
   8.39751366  4.38372608  4.63447006
   6.44051300  2.92248405  3.37121422
   0.00000000  2.92248405  5.89772590
   7.70376884  4.38372608  7.85472656
  11.61777016  4.38372608  7.85472656
   9.66076950  2.92248405  6.59147072
   9.66076950  2.92248405  9.11798240
  10.92402533  4.38372608 11.07498306
   8.39751366  4.38372608 11.07498306
   6.44051300  2.92248405  9.81172722
   0.00000000  2.92248405 12.33823890
   7.70376884  7.30621013  1.41421356
  11.61777016  7.30621013  1.41421356
   9.66076950  5.84496811  0.15095772
   9.66076950  5.84496811  2.67746940
  10.92402533  7.30621013  4.63447006
   8.39751366  7.30621013  4.63447006
   6.44051300  5.84496811  3.37121422
   0.00000000  5.84496811  5.89772590
   7.70376884  7.30621013  7.85472656
  11.61777016  7.30621013  7.85472656
   9.66076950  5.84496811  6.59147072
   9.66076950  5.84496811  9.11798240
  10.92402533  7.30621013 11.07498306
   8.39751366  7.30621013 11.07498306
   6.44051300  5.84496811  9.81172722
   0.00000000  5.84496811 12.33823890
   7.70376884 10.22869419  1.41421356
  11.61777016 10.22869419  1.41421356
   9.66076950  8.76745216  0.15095772
   9.66076950  8.76745216  2.67746940
  10.92402533 10.22869419  4.63447006
   8.39751366 10.22869419  4.63447006
   6.44051300  8.76745216  3.37121422
   0.00000000  8.76745216  5.89772590
   7.70376884 10.22869419  7.85472656
  11.61777016 10.22869419  7.85472656
   9.66076950  8.76745216  6.59147072
   9.66076950  8.76745216  9.11798240
  10.92402533 10.22869419 11.07498306
   8.39751366 10.22869419 11.07498306
   6.44051300  8.76745216  9.81172722
   0.00000000  8.76745216 12.33823890
 


--------------------------------------------------------------------------------------------------------


 k-point   1 :   0.0000 0.0000 0.0000  plane waves:   49319
 k-point   2 :   0.5000 0.0000 0.0000  plane waves:   49262
 k-point   3 :   0.0000 0.0000 0.5000  plane waves:   49262
 k-point   4 :   0.0000 0.5000 0.0000  plane waves:   49194
 k-point   5 :   0.5000 0.5000 0.0000  plane waves:   49240
 k-point   6 :   0.0000 0.5000 0.5000  plane waves:   49240
 k-point   7 :   0.5000 0.0000 0.5000  plane waves:   49204
 k-point   8 :   0.5000 0.5000 0.5000  plane waves:   49144

 maximum and minimum number of plane-waves per node :      2507     2394

 maximum number of plane-waves:     49319
 maximum index in each direction: 
   IXMAX=   23   IYMAX=   21   IZMAX=   23
   IXMIN=  -23   IYMIN=  -21   IZMIN=  -23


 real space projection operators:
  total allocation   :      50535.56 KBytes
  max/ min on nodes  :       2971.75       1485.50


 parallel 3D FFT for wavefunctions:
    minimum data exchange during FFTs selected (reduces bandwidth)
 parallel 3D FFT for charge:
    minimum data exchange during FFTs selected (reduces bandwidth)


 total amount of memory used by VASP MPI-rank0   105606. kBytes
=======================================================================

   base      :      30000. kBytes
   nonlr-proj:      15063. kBytes
   fftplans  :       3523. kBytes
   grid      :       5634. kBytes
   one-center:        155. kBytes
   wavefun   :      51231. kBytes
 
     INWAV:  cpu time    0.0000: real time    0.0000
 Broyden mixing: mesh for mixing (old mesh)
   NGX = 47   NGY = 43   NGZ = 47
  (NGX  =192   NGY  =180   NGZ  =192)
  gives a total of  94987 points

 initial charge density was supplied:
 charge density of overlapping atoms calculated
 number of electron    1530.0000000 magnetization 
 keeping initial charge density in first step


--------------------------------------------------------------------------------------------------------


 Maximum index for non-local projection operator          286
 Maximum index for augmentation-charges          781 (set IRDMAX)


--------------------------------------------------------------------------------------------------------


 First call to EWALD:  gamma=   0.142
 Maximum number of real-space cells 3x 3x 3
 Maximum number of reciprocal cells 3x 3x 3

    FEWALD:  cpu time    0.0116: real time    0.0120


--------------------------------------- Iteration      1(   1)  ---------------------------------------


    POTLOK:  cpu time    0.0154: real time    0.0195
    SETDIJ:  cpu time    0.0884: real time    0.0949
     EDDAV:  cpu time   29.6322: real time   29.7621
       DOS:  cpu time    0.0046: real time    0.0097
    --------------------------------------------
      LOOP:  cpu time   29.7406: real time   29.8863

 eigenvalue-minimisations  : 14688
 total energy-change (2. order) : 0.2616590E+05  (-0.7119046E+05)
 number of electron    1530.0000000 magnetization 
 augmentation part     1530.0000000 magnetization 

 Free energy of the ion-electron system (eV)
  ---------------------------------------------------
  alpha Z        PSCENC =      6406.43606640
  Ewald energy   TEWEN  =   -115548.46277195
  -Hartree energ DENC   =    -39575.38919213
  -exchange      EXHF   =         0.00000000
  -V(xc)+E(xc)   XCENC  =      7617.18663558
  PAW double counting   =    124690.42096125  -123910.56504755
  entropy T*S    EENTRO =        -0.03115024
  eigenvalues    EBANDS =     10009.09568916
  atomic energy  EATOM  =    156477.20918771
  Solvation  Ediel_sol  =         0.00000000
  ---------------------------------------------------
  free energy    TOTEN  =     26165.90037824 eV

  energy without entropy =    26165.93152848  energy(sigma->0) =    26165.91595336


--------------------------------------------------------------------------------------------------------




--------------------------------------- Iteration      1(   2)  ---------------------------------------


     EDDAV:  cpu time   29.7646: real time   29.8408
       DOS:  cpu time    0.0038: real time    0.0038
    --------------------------------------------
      LOOP:  cpu time   29.7684: real time   29.8446

 eigenvalue-minimisations  : 14688
 total energy-change (2. order) :-0.2227433E+05  (-0.2123341E+05)
 number of electron    1530.0000000 magnetization 
 augmentation part     1530.0000000 magnetization 

 Free energy of the ion-electron system (eV)
  ---------------------------------------------------
  alpha Z        PSCENC =      6406.43606640
  Ewald energy   TEWEN  =   -115548.46277195
  -Hartree energ DENC   =    -39575.38919213
  -exchange      EXHF   =         0.00000000
  -V(xc)+E(xc)   XCENC  =      7617.18663558
  PAW double counting   =    124690.42096125  -123910.56504755
  entropy T*S    EENTRO =        -0.08860881
  eigenvalues    EBANDS =    -12265.17341268
  atomic energy  EATOM  =    156477.20918771
  Solvation  Ediel_sol  =         0.00000000
  ---------------------------------------------------
  free energy    TOTEN  =      3891.57381783 eV

  energy without entropy =     3891.66242664  energy(sigma->0) =     3891.61812224


--------------------------------------------------------------------------------------------------------




--------------------------------------- Iteration      1(   3)  ---------------------------------------


     EDDAV:  cpu time   33.1284: real time   33.2157
       DOS:  cpu time    0.0044: real time    0.0044
    --------------------------------------------
      LOOP:  cpu time   33.1328: real time   33.2201

 eigenvalue-minimisations  : 17280
 total energy-change (2. order) :-0.5641520E+04  (-0.5418075E+04)
 number of electron    1530.0000000 magnetization 
 augmentation part     1530.0000000 magnetization 

 Free energy of the ion-electron system (eV)
  ---------------------------------------------------
  alpha Z        PSCENC =      6406.43606640
  Ewald energy   TEWEN  =   -115548.46277195
  -Hartree energ DENC   =    -39575.38919213
  -exchange      EXHF   =         0.00000000
  -V(xc)+E(xc)   XCENC  =      7617.18663558
  PAW double counting   =    124690.42096125  -123910.56504755
  entropy T*S    EENTRO =        -0.01154640
  eigenvalues    EBANDS =    -17906.77009668
  atomic energy  EATOM  =    156477.20918771
  Solvation  Ediel_sol  =         0.00000000
  ---------------------------------------------------
  free energy    TOTEN  =     -1749.94580377 eV

  energy without entropy =    -1749.93425736  energy(sigma->0) =    -1749.94003056


--------------------------------------------------------------------------------------------------------




--------------------------------------- Iteration      1(   4)  ---------------------------------------


     EDDAV:  cpu time   37.6033: real time   37.7020
       DOS:  cpu time    0.0044: real time    0.0045
    --------------------------------------------
      LOOP:  cpu time   37.6078: real time   37.7064

 eigenvalue-minimisations  : 20304
 total energy-change (2. order) :-0.6036851E+03  (-0.5996517E+03)
 number of electron    1530.0000000 magnetization 
 augmentation part     1530.0000000 magnetization 

 Free energy of the ion-electron system (eV)
  ---------------------------------------------------
  alpha Z        PSCENC =      6406.43606640
  Ewald energy   TEWEN  =   -115548.46277195
  -Hartree energ DENC   =    -39575.38919213
  -exchange      EXHF   =         0.00000000
  -V(xc)+E(xc)   XCENC  =      7617.18663558
  PAW double counting   =    124690.42096125  -123910.56504755
  entropy T*S    EENTRO =        -0.00000000
  eigenvalues    EBANDS =    -18510.46674535
  atomic energy  EATOM  =    156477.20918771
  Solvation  Ediel_sol  =         0.00000000
  ---------------------------------------------------
  free energy    TOTEN  =     -2353.63090603 eV

  energy without entropy =    -2353.63090603  energy(sigma->0) =    -2353.63090603


--------------------------------------------------------------------------------------------------------




--------------------------------------- Iteration      1(   5)  ---------------------------------------


     EDDAV:  cpu time   41.8183: real time   41.9274
       DOS:  cpu time    0.0026: real time    0.0026
    CHARGE:  cpu time    0.6914: real time    0.6973
    MIXING:  cpu time    0.0021: real time    0.0043
    --------------------------------------------
      LOOP:  cpu time   42.5145: real time   42.6316

 eigenvalue-minimisations  : 23232
 total energy-change (2. order) :-0.4779206E+02  (-0.4774913E+02)
 number of electron    1529.9999191 magnetization 
 augmentation part      320.0664974 magnetization 

 Broyden mixing:
  rms(total) = 0.17968E+02    rms(broyden)= 0.17967E+02
  rms(prec ) = 0.20366E+02
  weight for this iteration     100.00

 Free energy of the ion-electron system (eV)
  ---------------------------------------------------
  alpha Z        PSCENC =      6406.43606640
  Ewald energy   TEWEN  =   -115548.46277195
  -Hartree energ DENC   =    -39575.38919213
  -exchange      EXHF   =         0.00000000
  -V(xc)+E(xc)   XCENC  =      7617.18663558
  PAW double counting   =    124690.42096125  -123910.56504755
  entropy T*S    EENTRO =        -0.00000000
  eigenvalues    EBANDS =    -18558.25880627
  atomic energy  EATOM  =    156477.20918771
  Solvation  Ediel_sol  =         0.00000000
  ---------------------------------------------------
  free energy    TOTEN  =     -2401.42296695 eV

  energy without entropy =    -2401.42296695  energy(sigma->0) =    -2401.42296695


--------------------------------------------------------------------------------------------------------




--------------------------------------- Iteration      1(   6)  ---------------------------------------


    POTLOK:  cpu time    0.0150: real time    0.0199
    SETDIJ:  cpu time    0.0882: real time    0.0884
    EDDIAG:  cpu time    6.5958: real time    6.6165
  RMM-DIIS:  cpu time   14.1411: real time   14.1796
    ORTHCH:  cpu time    3.3537: real time    3.3620
       DOS:  cpu time    0.0039: real time    0.0038
    CHARGE:  cpu time    0.6975: real time    0.6992
    MIXING:  cpu time    0.0016: real time    0.0025
    --------------------------------------------
      LOOP:  cpu time   24.8967: real time   24.9720

 eigenvalue-minimisations  : 21499
 total energy-change (2. order) : 0.5376978E+03  (-0.3071989E+03)
 number of electron    1529.9999431 magnetization 
 augmentation part      328.4660081 magnetization 

 Broyden mixing:
  rms(total) = 0.49508E+01    rms(broyden)= 0.49454E+01
  rms(prec ) = 0.53688E+01
  weight for this iteration     100.00

 eigenvalues of (default mixing * dielectric matrix)
  average eigenvalue GAMMA=   0.9147
  0.9147

 Free energy of the ion-electron system (eV)
  ---------------------------------------------------
  alpha Z        PSCENC =      6406.43606640
  Ewald energy   TEWEN  =   -115548.46277195
  -Hartree energ DENC   =    -39038.79965721
  -exchange      EXHF   =         0.00000000
  -V(xc)+E(xc)   XCENC  =      7678.70623136
  PAW double counting   =    144070.09473064  -143512.13845391
  entropy T*S    EENTRO =        -0.03323169
  eigenvalues    EBANDS =    -18396.73728185
  atomic energy  EATOM  =    156477.20918771
  Solvation  Ediel_sol  =         0.00000000
  ---------------------------------------------------
  free energy    TOTEN  =     -1863.72518049 eV

  energy without entropy =    -1863.69194880  energy(sigma->0) =    -1863.70856464


--------------------------------------------------------------------------------------------------------




--------------------------------------- Iteration      1(   7)  ---------------------------------------


    POTLOK:  cpu time    0.0171: real time    0.0215
    SETDIJ:  cpu time    0.0897: real time    0.0900
    EDDIAG:  cpu time    6.6582: real time    6.6748
  RMM-DIIS:  cpu time   13.7252: real time   13.7593
    ORTHCH:  cpu time    3.3546: real time    3.3629
       DOS:  cpu time    0.0029: real time    0.0029
    CHARGE:  cpu time    0.6881: real time    0.6899
    MIXING:  cpu time    0.0013: real time    0.0013
    --------------------------------------------
      LOOP:  cpu time   24.5371: real time   24.6026

 eigenvalue-minimisations  : 20930
 total energy-change (2. order) : 0.5740798E+01  (-0.2920773E+02)
 number of electron    1529.9999386 magnetization 
 augmentation part      318.2583436 magnetization 

 Broyden mixing:
  rms(total) = 0.42206E+01    rms(broyden)= 0.42205E+01
  rms(prec ) = 0.43265E+01
  weight for this iteration     100.00

 eigenvalues of (default mixing * dielectric matrix)
  average eigenvalue GAMMA=   1.9344
  0.8235  3.0453

 Free energy of the ion-electron system (eV)
  ---------------------------------------------------
  alpha Z        PSCENC =      6406.43606640
  Ewald energy   TEWEN  =   -115548.46277195
  -Hartree energ DENC   =    -38923.13341406
  -exchange      EXHF   =         0.00000000
  -V(xc)+E(xc)   XCENC  =      7655.55213415
  PAW double counting   =    152976.82156821  -152425.42267483
  entropy T*S    EENTRO =        -0.00009382
  eigenvalues    EBANDS =    -18476.98438415
  atomic energy  EATOM  =    156477.20918771
  Solvation  Ediel_sol  =         0.00000000
  ---------------------------------------------------
  free energy    TOTEN  =     -1857.98438234 eV

  energy without entropy =    -1857.98428851  energy(sigma->0) =    -1857.98433542


--------------------------------------------------------------------------------------------------------




--------------------------------------- Iteration      1(   8)  ---------------------------------------


    POTLOK:  cpu time    0.0145: real time    0.0193
    SETDIJ:  cpu time    0.0884: real time    0.0886
    EDDIAG:  cpu time    6.6136: real time    6.6302
  RMM-DIIS:  cpu time   15.8698: real time   15.9097
    ORTHCH:  cpu time    3.3834: real time    3.3919
       DOS:  cpu time    0.0056: real time    0.0056
    CHARGE:  cpu time    0.6875: real time    0.6891
    MIXING:  cpu time    0.0014: real time    0.0014
    --------------------------------------------
[...]
      1.95700      1.46124     11.07498         0.001934      0.015384     -0.009934
      0.00000      0.00000      9.81173        -0.000002     -0.000008     -0.000009
      6.44051      0.00000     12.33824         0.000006     -0.000007     -0.021518
      1.26326      4.38373      1.41421         0.008709     -0.005996     -0.000752
      5.17726      4.38373      1.41421        -0.032410      0.016413      0.026485
      3.22026      2.92248      0.15096        -0.001369      0.012635     -0.009420
      3.22026      2.92248      2.67747         0.011201      0.025626      0.037346
      4.48351      4.38373      4.63447         0.569235      0.064608      0.173842
      1.95700      4.38373      4.63447        -0.021075      0.011890     -0.007478
      0.00000      2.92248      3.37121        -0.000013      0.001443      0.009951
      6.44051      2.92248      5.89773         0.000036      0.327223      0.025342
      1.26326      4.38373      7.85473         0.059300      0.000736     -0.004064
      5.17726      4.38373      7.85473         0.237850      0.408913     -0.361184
      3.22026      2.92248      6.59147         0.037159      0.046669      0.030277
      3.22026      2.92248      9.11798         0.033151      0.045452     -0.047142
      4.48351      4.38373     11.07498        -0.016875     -0.006102     -0.024583
      1.95700      4.38373     11.07498        -0.000921     -0.007927     -0.010552
      0.00000      2.92248      9.81173        -0.000002      0.004574     -0.004068
      6.44051      2.92248     12.33824        -0.000004     -0.018801     -0.009799
      1.26326      7.30621      1.41421         0.008673      0.006043     -0.000755
      5.17726      7.30621      1.41421        -0.032435     -0.016437      0.026477
      3.22026      5.84497      0.15096        -0.004324     -0.000050     -0.006736
      3.22026      5.84497      2.67747         0.005654     -0.000032      0.064180
      4.48351      7.30621      4.63447         0.569097     -0.064589      0.173869
      1.95700      7.30621      4.63447        -0.020972     -0.011866     -0.007473
      0.00000      5.84497      3.37121         0.000000     -0.000011      0.004277
      1.26326      7.30621      7.85473         0.059344     -0.000791     -0.004080
      5.17726      7.30621      7.85473         0.237886     -0.408947     -0.361225
      3.22026      5.84497      6.59147         0.049708     -0.000032      0.010850
      3.22026      5.84497      9.11798         0.029834     -0.000022     -0.054085
      4.48351      7.30621     11.07498        -0.016974      0.006106     -0.024591
      1.95700      7.30621     11.07498        -0.000928      0.007942     -0.010549
      0.00000      5.84497      9.81173        -0.000009     -0.000012     -0.006505
      6.44051      5.84497     12.33824        -0.000025     -0.000142      0.125668
      1.26326     10.22869      1.41421        -0.002336     -0.016368     -0.002586
      5.17726     10.22869      1.41421        -0.032458      0.008312      0.010107
      3.22026      8.76745      0.15096        -0.001381     -0.012520     -0.009345
      3.22026      8.76745      2.67747         0.011197     -0.025510      0.037328
      4.48351     10.22869      4.63447         0.062259     -0.031913      0.007364
      1.95700     10.22869      4.63447         0.009439     -0.026886      0.010336
      0.00000      8.76745      3.37121        -0.000004     -0.001434      0.009926
      6.44051      8.76745      5.89773        -0.000015     -0.327180      0.025341
      1.26326     10.22869      7.85473         0.027075     -0.018714     -0.001548
      5.17726     10.22869      7.85473         0.048801     -0.084777     -0.017184
      3.22026      8.76745      6.59147         0.037127     -0.046680      0.030186
      3.22026      8.76745      9.11798         0.033168     -0.045487     -0.047119
      4.48351     10.22869     11.07498         0.003000     -0.014737     -0.013976
      1.95700     10.22869     11.07498         0.001913     -0.015358     -0.009934
      0.00000      8.76745      9.81173         0.000010     -0.004554     -0.004035
      6.44051      8.76745     12.33824        -0.000003      0.018925     -0.009820
      7.70377      1.46124      1.41421         0.032383     -0.008240      0.010122
     11.61777      1.46124      1.41421         0.002383      0.016324     -0.002594
      9.66077      0.00000      0.15096         0.001529     -0.000014     -0.013691
      9.66077      0.00000      2.67747        -0.002630     -0.000003      0.012461
     10.92403      1.46124      4.63447        -0.009499      0.026724      0.010338
      8.39751      1.46124      4.63447        -0.062192      0.031809      0.007382
      6.44051      0.00000      3.37121        -0.000002     -0.000025      0.052137
      0.00000      0.00000      5.89773        -0.000001     -0.000003      0.006943
      7.70377      1.46124      7.85473        -0.048761      0.084846     -0.017181
     11.61777      1.46124      7.85473        -0.027109      0.018723     -0.001549
      9.66077      0.00000      6.59147        -0.010290      0.000015      0.033687
      9.66077      0.00000      9.11798        -0.008658     -0.000021     -0.023380
     10.92403      1.46124     11.07498        -0.001927      0.015368     -0.009939
      8.39751      1.46124     11.07498        -0.003009      0.014747     -0.013989
      6.44051      0.00000      9.81173         0.000015     -0.000000     -0.052193
      0.00000      0.00000     12.33824         0.000009     -0.000031     -0.021818
      7.70377      4.38373      1.41421         0.032375      0.016411      0.026478
     11.61777      4.38373      1.41421        -0.008695     -0.005992     -0.000750
      9.66077      2.92248      0.15096         0.001383      0.012563     -0.009403
      9.66077      2.92248      2.67747        -0.011215      0.025568      0.037391
     10.92403      4.38373      4.63447         0.020932      0.011976     -0.007479
      8.39751      4.38373      4.63447        -0.569214      0.064766      0.173941
      6.44051      2.92248      3.37121         0.000031      0.246037      0.096295
      0.00000      2.92248      5.89773        -0.000014      0.006085      0.011844
      7.70377      4.38373      7.85473        -0.237788      0.408840     -0.361103
     11.61777      4.38373      7.85473        -0.059341      0.000708     -0.004108
      9.66077      2.92248      6.59147        -0.037147      0.046676      0.030246
      9.66077      2.92248      9.11798        -0.033159      0.045478     -0.047166
     10.92403      4.38373     11.07498         0.000935     -0.007942     -0.010556
      8.39751      4.38373     11.07498         0.016933     -0.006133     -0.024585
      6.44051      2.92248      9.81173        -0.000023     -0.000248     -0.217365
      0.00000      2.92248     12.33824         0.000009      0.003557     -0.015471
      7.70377      7.30621      1.41421         0.032462     -0.016482      0.026470
     11.61777      7.30621      1.41421        -0.008666      0.006037     -0.000759
      9.66077      5.84497      0.15096         0.004330      0.000020     -0.006747
      9.66077      5.84497      2.67747        -0.005634      0.000029      0.064283
     10.92403      7.30621      4.63447         0.020970     -0.011965     -0.007473
      8.39751      7.30621      4.63447        -0.569275     -0.064717      0.173904
      6.44051      5.84497      3.37121         0.000040      0.000052      0.944024
      0.00000      5.84497      5.89773         0.000005     -0.000018      0.016515
      7.70377      7.30621      7.85473        -0.237822     -0.408917     -0.361149
     11.61777      7.30621      7.85473        -0.059330     -0.000763     -0.004079
      9.66077      5.84497      6.59147        -0.049719     -0.000047      0.010795
      9.66077      5.84497      9.11798        -0.029823     -0.000056     -0.054132
     10.92403      7.30621     11.07498         0.000932      0.007903     -0.010555
      8.39751      7.30621     11.07498         0.016973      0.006089     -0.024569
      6.44051      5.84497      9.81173         0.000062     -0.000063     -0.439399
      0.00000      5.84497     12.33824        -0.000000     -0.000020     -0.013294
      7.70377     10.22869      1.41421         0.032472      0.008267      0.010122
     11.61777     10.22869      1.41421         0.002402     -0.016368     -0.002586
      9.66077      8.76745      0.15096         0.001387     -0.012564     -0.009365
      9.66077      8.76745      2.67747        -0.011199     -0.025557      0.037370
     10.92403     10.22869      4.63447        -0.009490     -0.026674      0.010328
      8.39751     10.22869      4.63447        -0.062217     -0.031723      0.007364
      6.44051      8.76745      3.37121        -0.000031     -0.245952      0.096350
      0.00000      8.76745      5.89773        -0.000009     -0.006089      0.011806
      7.70377     10.22869      7.85473        -0.048747     -0.084799     -0.017211
     11.61777     10.22869      7.85473        -0.027137     -0.018700     -0.001535
      9.66077      8.76745      6.59147        -0.037162     -0.046710      0.030206
      9.66077      8.76745      9.11798        -0.033139     -0.045468     -0.047147
     10.92403     10.22869     11.07498        -0.001890     -0.015370     -0.009938
      8.39751     10.22869     11.07498        -0.003002     -0.014741     -0.013995
      6.44051      8.76745      9.81173        -0.000003      0.000300     -0.217391
      0.00000      8.76745     12.33824         0.000005     -0.003523     -0.015427
 -----------------------------------------------------------------------------------
    total drift:                               -0.000290      0.000212      0.031109


--------------------------------------------------------------------------------------------------------



  FREE ENERGIE OF THE ION-ELECTRON SYSTEM (eV)
  ---------------------------------------------------
  free  energy   TOTEN  =     -1869.51853269 eV

  energy  without entropy=    -1869.50985073  energy(sigma->0) =    -1869.51419171
 


--------------------------------------------------------------------------------------------------------


    POTLOK:  cpu time    0.1097: real time    0.1107


--------------------------------------------------------------------------------------------------------


     LOOP+:  cpu time  820.7519: real time  823.3700
    4ORBIT:  cpu time    0.0000: real time    0.0000



 total charge

# of ion       s       p       d       tot
------------------------------------------
    1        2.234   6.328   1.781  10.343
    2        2.234   6.328   1.780  10.343
    3        2.233   6.327   1.784  10.344
    4        2.234   6.328   1.781  10.344
    5        2.234   6.328   1.781  10.343
    6        2.234   6.328   1.780  10.343
    7        2.234   6.329   1.780  10.343
    8        2.234   6.329   1.780  10.342
    9        2.234   6.329   1.780  10.342
   10        2.234   6.329   1.780  10.342
   11        2.222   6.282   1.784  10.287
   12        2.234   6.328   1.784  10.345
   13        2.234   6.329   1.782  10.344
   14        2.234   6.328   1.780  10.343
   15        2.233   6.327   1.789  10.349
   16        2.234   6.329   1.780  10.342
   17        2.234   6.329   1.780  10.342
   18        2.234   6.329   1.780  10.342
   19        2.222   6.282   1.784  10.287
   20        2.233   6.328   1.785  10.346
   21        2.234   6.329   1.782  10.344
   22        2.234   6.328   1.780  10.343
   23        2.233   6.327   1.789  10.349
   24        2.234   6.329   1.780  10.343
   25        2.234   6.328   1.781  10.343
   26        2.234   6.329   1.780  10.342
   27        2.233   6.327   1.784  10.344
   28        2.234   6.328   1.784  10.345
   29        2.234   6.328   1.781  10.343
   30        2.234   6.328   1.780  10.343
   31        2.234   6.329   1.780  10.343
   32        2.234   6.329   1.780  10.342
   33        2.234   6.328   1.781  10.343
   34        2.234   6.329   1.780  10.342
   35        2.234   6.329   1.780  10.342
   36        2.234   6.328   1.781  10.344
   37        2.234   6.328   1.781  10.343
   38        2.234   6.328   1.781  10.343
   39        2.234   6.329   1.780  10.342
   40        2.234   6.329   1.780  10.342
   41        2.234   6.329   1.780  10.342
   42        2.234   6.327   1.787  10.348
   43        2.234   6.329   1.780  10.343
   44        2.234   6.328   1.784  10.345
   45        2.234   6.329   1.782  10.344
   46        2.234   6.329   1.779  10.342
   47        2.234   6.329   1.780  10.342
   48        2.234   6.329   1.780  10.342
   49        2.234   6.329   1.780  10.342
   50        2.234   6.327   1.784  10.344
   51        2.234   6.329   1.780  10.343
   52        2.233   6.328   1.785  10.346
   53        2.234   6.329   1.782  10.344
   54        2.224   6.282   1.791  10.297
   55        2.234   6.329   1.780  10.342
   56        2.234   6.329   1.780  10.343
   57        2.234   6.328   1.781  10.343
   58        2.233   6.327   1.787  10.348
   59        2.234   6.329   1.780  10.342
   60        2.234   6.328   1.784  10.345
   61        2.234   6.328   1.781  10.343
   62        2.234   6.329   1.779  10.342
   63        2.234   6.329   1.780  10.342
   64        2.234   6.329   1.780  10.342
   65        1.564   3.493   0.000   5.057
   66        1.564   3.493   0.000   5.057
   67        1.564   3.493   0.000   5.057
   68        1.564   3.493   0.000   5.057
   69        1.564   3.493   0.000   5.058
   70        1.564   3.493   0.000   5.057
   71        1.564   3.493   0.000   5.057
   72        1.564   3.493   0.000   5.057
   73        1.564   3.493   0.000   5.057
   74        1.564   3.493   0.000   5.057
   75        1.564   3.493   0.000   5.057
   76        1.564   3.493   0.000   5.057
   77        1.564   3.493   0.000   5.057
   78        1.564   3.493   0.000   5.057
   79        1.564   3.493   0.000   5.057
   80        1.564   3.493   0.000   5.057
   81        1.564   3.493   0.000   5.057
   82        1.564   3.493   0.000   5.058
   83        1.564   3.493   0.000   5.057
   84        1.564   3.493   0.000   5.057
   85        1.564   3.491   0.000   5.055
   86        1.564   3.493   0.000   5.057
   87        1.564   3.493   0.000   5.057
   88        1.564   3.493   0.000   5.058
   89        1.564   3.493   0.000   5.057
   90        1.565   3.490   0.000   5.055
   91        1.564   3.493   0.000   5.057
   92        1.564   3.493   0.000   5.057
   93        1.564   3.493   0.000   5.058
   94        1.564   3.493   0.000   5.057
   95        1.564   3.493   0.000   5.057
   96        1.564   3.492   0.000   5.057
   97        1.564   3.493   0.000   5.057
   98        1.564   3.493   0.000   5.058
   99        1.564   3.493   0.000   5.057
  100        1.564   3.493   0.000   5.058
  101        1.564   3.491   0.000   5.055
  102        1.564   3.493   0.000   5.057
  103        1.564   3.493   0.000   5.057
  104        1.564   3.493   0.000   5.057
  105        1.565   3.490   0.000   5.055
  106        1.564   3.494   0.000   5.059
  107        1.564   3.493   0.000   5.058
  108        1.564   3.493   0.000   5.058
  109        1.564   3.493   0.000   5.057
  110        1.564   3.493   0.000   5.057
  111        1.564   3.492   0.000   5.056
  112        1.564   3.493   0.000   5.057
  113        1.564   3.493   0.000   5.057
  114        1.564   3.493   0.000   5.057
  115        1.564   3.493   0.000   5.057
  116        1.564   3.493   0.000   5.058
  117        1.564   3.493   0.000   5.057
  118        1.564   3.493   0.000   5.057
  119        1.564   3.493   0.000   5.058
  120        1.564   3.493   0.000   5.057
  121        1.564   3.493   0.000   5.057
  122        1.564   3.493   0.000   5.057
  123        1.564   3.493   0.000   5.057
  124        1.564   3.493   0.000   5.057
  125        1.564   3.493   0.000   5.057
  126        1.564   3.493   0.000   5.057
  127        1.564   3.492   0.000   5.057
  128        1.564   3.493   0.000   5.057
  129        1.564   3.493   0.000   5.057
  130        1.564   3.493   0.000   5.057
  131        1.564   3.493   0.000   5.057
  132        1.564   3.493   0.000   5.057
  133        1.564   3.493   0.000   5.058
  134        1.564   3.492   0.000   5.057
  135        1.564   3.493   0.000   5.057
  136        1.564   3.493   0.000   5.057
  137        1.564   3.493   0.000   5.057
  138        1.564   3.493   0.000   5.057
  139        1.564   3.493   0.000   5.057
  140        1.564   3.493   0.000   5.057
  141        1.564   3.493   0.000   5.057
  142        1.564   3.493   0.000   5.057
  143        1.564   3.493   0.000   5.057
  144        1.564   3.493   0.000   5.058
  145        1.564   3.493   0.000   5.057
  146        1.564   3.493   0.000   5.057
  147        1.564   3.493   0.000   5.057
  148        1.564   3.493   0.000   5.057
  149        1.564   3.491   0.000   5.055
  150        1.567   3.482   0.000   5.049
  151        1.564   3.493   0.000   5.057
  152        1.565   3.490   0.000   5.055
  153        1.564   3.493   0.000   5.057
  154        1.564   3.493   0.000   5.057
  155        1.564   3.493   0.000   5.057
  156        1.564   3.493   0.000   5.057
  157        1.564   3.493   0.000   5.058
  158        1.564   3.494   0.000   5.058
  159        1.564   3.493   0.000   5.057
  160        1.564   3.493   0.000   5.058
  161        1.564   3.493   0.000   5.057
  162        1.564   3.493   0.000   5.057
  163        1.564   3.493   0.000   5.058
  164        1.564   3.493   0.000   5.057
  165        1.564   3.491   0.000   5.055
  166        1.565   3.487   0.000   5.052
  167        1.564   3.493   0.000   5.057
  168        1.565   3.490   0.000   5.055
  169        1.564   3.493   0.000   5.057
  170        1.564   3.494   0.000   5.059
  171        1.564   3.493   0.000   5.058
  172        1.564   3.493   0.000   5.057
  173        1.564   3.493   0.000   5.058
  174        1.566   3.484   0.000   5.049
  175        1.564   3.493   0.000   5.057
  176        1.564   3.493   0.000   5.057
  177        1.564   3.493   0.000   5.057
  178        1.564   3.493   0.000   5.057
  179        1.564   3.493   0.000   5.057
  180        1.564   3.493   0.000   5.057
  181        1.564   3.493   0.000   5.058
  182        1.567   3.482   0.000   5.049
  183        1.564   3.493   0.000   5.057
  184        1.564   3.493   0.000   5.057
  185        1.564   3.493   0.000   5.057
  186        1.564   3.493   0.000   5.057
  187        1.564   3.493   0.000   5.057
  188        1.564   3.493   0.000   5.057
  189        1.564   3.493   0.000   5.057
  190        1.564   3.494   0.000   5.058
  191        1.564   3.493   0.000   5.057
--------------------------------------------------
tot        341.611 848.432 114.0191304.061
 

 total amount of memory used by VASP MPI-rank0   105606. kBytes
=======================================================================

   base      :      30000. kBytes
   nonlr-proj:      15063. kBytes
   fftplans  :       3523. kBytes
   grid      :       5634. kBytes
   one-center:        155. kBytes
   wavefun   :      51231. kBytes
 
  
  
 General timing and accounting informations for this job:
 ========================================================
  
                  Total CPU time used (sec):      864.852
                            User time (sec):      859.056
                          System time (sec):        5.796
                         Elapsed time (sec):      869.893
  
                   Maximum memory used (kb):      343200.
                   Average memory used (kb):          N/A
  
                          Minor page faults:        83573
                          Major page faults:           12
                 Voluntary context switches:        10835
