 vasp.6.2.1 16May21 (build Oct 07 2021 14:09:27) complex                        
  
 executed on             LinuxIFC date 2022.01.20  00:15:11
 running on   76 total cores
 distrk:  each k-point on   76 cores,    1 groups
 distr:  one band on NCORE=  19 cores,    4 groups


--------------------------------------------------------------------------------------------------------


 INCAR:
   SYSTEM = MgO-rocksalt
   ISMEAR = 0
   SIGMA = 0.05
   EDIFF = 1E-6
   ALGO = Fast
   GGA = PE
   ISTART = 0
   IBRION = 2
   NSW = 200
   EDIFFG = -0.01
   ISIF = 3
   ENCUT = 800
   PREC = Accurate
   LASPH = .TRUE.
   LREAL = .FALSE.
   ISPIN = 1
   NELM = 60
   NELMIN = 4
   NCORE = 19
   LWAVE = .FALSE.
   LCHARG = .FALSE.
   LORBIT = 11

 POTCAR:    PAW_PBE Mg_sv 12Apr2007               
 POTCAR:    PAW_PBE O 08Apr2002                   
 -----------------------------------------------------------------------------
|                                                                             |
|           W    W    AA    RRRRR   N    N  II  N    N   GGGG   !!!           |
|           W    W   A  A   R    R  NN   N  II  NN   N  G    G  !!!           |
|           W    W  A    A  R    R  N N  N  II  N N  N  G       !!!           |
|           W WW W  AAAAAA  RRRRR   N  N N  II  N  N N  G  GGG   !            |
|           WW  WW  A    A  R   R   N   NN  II  N   NN  G    G                |
|           W    W  A    A  R    R  N    N  II  N    N   GGGG   !!!           |
|                                                                             |
|     For optimal performance we recommend to set                             |
|       NCORE = 2 up to number-of-cores-per-socket                            |
|     NCORE specifies how many cores store one orbital (NPAR=cpu/NCORE).      |
|     This setting can greatly improve the performance of VASP for DFT.       |
|     The default, NCORE=1 might be grossly inefficient on modern             |
|     multi-core architectures or massively parallel machines. Do your        |
|     own testing! More info at https://www.vasp.at/wiki/index.php/NCORE      |
|     Unfortunately you need to use the default for GW and RPA                |
|     calculations (for HF NCORE is supported but not extensively tested      |
|     yet).                                                                   |
|                                                                             |
 -----------------------------------------------------------------------------

 POTCAR:    PAW_PBE Mg_sv 12Apr2007               
   SHA256 =  c031e1d7f73808198b463395d641520b61dff8900336e561361552d85f4fc16c Mg_sv/POTCAR          
   COPYR  = (c) Copyright 12Apr2007 Georg Kresse                                                    
   COPYR  = This file is part of the software VASP. Any use, copying, and all other rights are regul
   COPYR  = If you do not have a valid VASP license, you may not use, copy or distribute this file. 
   VRHFIN =Mg: p6s2                                                                                 
   LEXCH  = PE                                                                                      
   EATOM  =  1728.4457 eV,  127.0372 Ry                                                             
                                                                                                    
   TITEL  = PAW_PBE Mg_sv 12Apr2007                                                                 
   LULTRA =        F    use ultrasoft PP ?                                                          
   IUNSCR =        0    unscreen: 0-lin 1-nonlin 2-no                                               
   RPACOR =    0.000    partial core radius                                                         
   POMASS =   24.305; ZVAL   =   10.000    mass and valenz                                          
   RCORE  =    1.700    outmost cutoff radius                                                       
   RWIGS  =    1.800; RWIGS  =    0.953    wigner-seitz radius (au A)                               
   ENMAX  =  495.223; ENMIN  =  371.417 eV                                                          
   RCLOC  =    1.506    cutoff for local pot                                                        
   LCOR   =        T    correct aug charges                                                         
   LPAW   =        T    paw PP                                                                      
   EAUG   =  980.156                                                                                
   RMAX   =    1.743    core radius for proj-oper                                                   
   RAUG   =    1.300    factor for augmentation sphere                                              
   RDEP   =    1.781    radius for radial grids                                                     
   RDEPT  =    1.300    core radius for aug-charge                                                  
                                                                                                    
   Atomic configuration                                                                             
    5 entries                                                                                       
     n  l   j            E        occ.                                                              
     1  0  0.50     -1259.6230   2.0000                                                             
     2  0  0.50       -79.8442   2.0000                                                             
     3  0  0.50        -4.7055   2.0000                                                             
     2  1  1.50       -46.6121   6.0000                                                             
     3  2  1.50        -1.3606   0.0000                                                             
   Description                                                                                      
     l       E           TYP  RCUT    TYP  RCUT                                                     
     0    -79.8442259     23  1.200                                                                 
     0     -4.7054661     23  1.700                                                                 
     1    -46.6121068     23  1.500                                                                 
     1      6.8029130     23  1.500                                                                 
     2     -1.3605826     23  1.700                                                                 
  local pseudopotential read in
  atomic valenz-charges read in
  non local Contribution for L=           0  read in
    real space projection operators read in
  non local Contribution for L=           0  read in
    real space projection operators read in
  non local Contribution for L=           1  read in
    real space projection operators read in
  non local Contribution for L=           1  read in
    real space projection operators read in
  non local Contribution for L=           2  read in
    real space projection operators read in
    PAW grid and wavefunctions read in
 
   number of l-projection  operators is LMAX  =           5
   number of lm-projection operators is LMMAX =          13
 
 POTCAR:    PAW_PBE O 08Apr2002                   
   SHA256 =  818f92134a0a090dccd8ba1447fa70422a3b330e708bb4f08108d8ae51209ddf O/POTCAR              
   COPYR  = (c) Copyright 08Apr2002 Georg Kresse                                                    
   COPYR  = This file is part of the software VASP. Any use, copying, and all other rights are regul
   COPYR  = If you do not have a valid VASP license, you may not use, copy or distribute this file. 
   VRHFIN =O: s2p4                                                                                  
   LEXCH  = PE                                                                                      
   EATOM  =   432.3788 eV,   31.7789 Ry                                                             
                                                                                                    
   TITEL  = PAW_PBE O 08Apr2002                                                                     
   LULTRA =        F    use ultrasoft PP ?                                                          
   IUNSCR =        1    unscreen: 0-lin 1-nonlin 2-no                                               
   RPACOR =    1.200    partial core radius                                                         
   POMASS =   16.000; ZVAL   =    6.000    mass and valenz                                          
   RCORE  =    1.520    outmost cutoff radius                                                       
   RWIGS  =    1.550; RWIGS  =    0.820    wigner-seitz radius (au A)                               
   ENMAX  =  400.000; ENMIN  =  300.000 eV                                                          
   ICORE  =        2    local potential                                                             
   LCOR   =        T    correct aug charges                                                         
   LPAW   =        T    paw PP                                                                      
   EAUG   =  605.392                                                                                
   DEXC   =    0.000                                                                                
   RMAX   =    1.553    core radius for proj-oper                                                   
   RAUG   =    1.300    factor for augmentation sphere                                              
   RDEP   =    1.550    radius for radial grids                                                     
   RDEPT  =    1.329    core radius for aug-charge                                                  
                                                                                                    
   Atomic configuration                                                                             
    4 entries                                                                                       
     n  l   j            E        occ.                                                              
     1  0  0.50      -514.6923   2.0000                                                             
     2  0  0.50       -23.9615   2.0000                                                             
     2  1  0.50        -9.0305   4.0000                                                             
     3  2  1.50        -9.5241   0.0000                                                             
   Description                                                                                      
     l       E           TYP  RCUT    TYP  RCUT                                                     
     0    -23.9615318     23  1.200                                                                 
     0     -9.5240782     23  1.200                                                                 
     1     -9.0304911     23  1.520                                                                 
     1      8.1634956     23  1.520                                                                 
     2     -9.5240782      7  1.500                                                                 
  local pseudopotential read in
  partial core-charges read in
  partial kinetic energy density read in
  kinetic energy density of atom read in
  atomic valenz-charges read in
  non local Contribution for L=           0  read in
    real space projection operators read in
  non local Contribution for L=           0  read in
    real space projection operators read in
  non local Contribution for L=           1  read in
    real space projection operators read in
  non local Contribution for L=           1  read in
    real space projection operators read in
    PAW grid and wavefunctions read in
 
   number of l-projection  operators is LMAX  =           4
   number of lm-projection operators is LMMAX =           8
 
  PAW_PBE Mg_sv 12Apr2007               :
 energy of atom  1       EATOM=-1728.4457
 kinetic energy error for atom=    0.0212 (will be added to EATOM!!)
  PAW_PBE O 08Apr2002                   :
 energy of atom  2       EATOM= -432.3788
 kinetic energy error for atom=    0.0041 (will be added to EATOM!!)
 
 
 POSCAR: Mg4 O4
  positions in direct lattice
  velocities in cartesian coordinates
 exchange correlation table for  LEXCH =        8
   RHO(1)=    0.500       N(1)  =     2000
   RHO(2)=  100.500       N(2)  =     4000
 


--------------------------------------------------------------------------------------------------------


 ion  position               nearest neighbor table
   1  0.000  0.000  0.000-   5 2.10   7 2.10   8 2.10   7 2.10   8 2.10   5 2.10
   2  0.000  0.500  0.500-   6 2.10   7 2.10   8 2.10   8 2.10   7 2.10   6 2.10
   3  0.500  0.000  0.500-   5 2.10   6 2.10   7 2.10   5 2.10   6 2.10   7 2.10
   4  0.500  0.500  0.000-   5 2.10   6 2.10   8 2.10   6 2.10   5 2.10   8 2.10
   5  0.500  0.000  0.000-   1 2.10   3 2.10   4 2.10   3 2.10   4 2.10   1 2.10
   6  0.500  0.500  0.500-   2 2.10   3 2.10   4 2.10   4 2.10   3 2.10   2 2.10
   7  0.000  0.000  0.500-   1 2.10   2 2.10   3 2.10   1 2.10   2 2.10   3 2.10
   8  0.000  0.500  0.000-   1 2.10   2 2.10   4 2.10   2 2.10   1 2.10   4 2.10
 
  LATTYP: Found a simple cubic cell.
 ALAT       =     4.2064569314
  
  Lattice vectors:
  
 A1 = (   4.2064569314,   0.0000000000,   0.0000000000)
 A2 = (   0.0000000000,   4.2064569314,   0.0000000000)
 A3 = (   0.0000000000,   0.0000000000,   4.2064569314)


Analysis of symmetry for initial positions (statically):
=====================================================================
 Subroutine PRICEL returns following result:
 
  LATTYP: Found a face centered cubic cell.
 ALAT       =     4.2064569314
  
  Lattice vectors:
  
 A1 = (   2.1032284657,  -2.1032284657,   0.0000000000)
 A2 = (   2.1032284657,   0.0000000000,   2.1032284657)
 A3 = (   0.0000000000,  -2.1032284657,   2.1032284657)
 
   4 primitive cells build up your supercell.
 

 Routine SETGRP: Setting up the symmetry group for a 
 simple cubic supercell.


 Subroutine GETGRP returns: Found 48 space group operations
 (whereof 48 operations were pure point group operations)
 out of a pool of 48 trial point group operations.


The static configuration has the point symmetry O_h .


Analysis of symmetry for dynamics (positions and initial velocities):
=====================================================================
 Subroutine PRICEL returns following result:
 
  LATTYP: Found a face centered cubic cell.
 ALAT       =     4.2064569314
  
  Lattice vectors:
  
 A1 = (   2.1032284657,  -2.1032284657,   0.0000000000)
 A2 = (   2.1032284657,   0.0000000000,   2.1032284657)
 A3 = (   0.0000000000,  -2.1032284657,   2.1032284657)
 
   4 primitive cells build up your supercell.
 

 Routine SETGRP: Setting up the symmetry group for a 
 simple cubic supercell.


 Subroutine GETGRP returns: Found 48 space group operations
 (whereof 48 operations were pure point group operations)
 out of a pool of 48 trial point group operations.


The dynamic configuration has the point symmetry O_h .


 Subroutine INISYM returns: Found 48 space group operations
 (whereof 48 operations are pure point group operations),
 and found     4 'primitive' translations


----------------------------------------------------------------------------------------

                                     Primitive cell                                     

  volume of cell :      18.6076

  direct lattice vectors                    reciprocal lattice vectors
     2.103228466 -2.103228466  0.000000000     0.237729761 -0.237729761 -0.237729761
     2.103228466  0.000000000  2.103228466     0.237729761  0.237729761  0.237729761
     0.000000000 -2.103228466  2.103228466    -0.237729761 -0.237729761  0.237729761

  length of vectors
     2.974414221  2.974414221  2.974414221     0.411760024  0.411760024  0.411760024

  position of ions in fractional coordinates (direct lattice)
     0.000000000  0.000000000  0.000000000
     0.500000000  0.500000000  0.500000000

  ion indices of the primitive-cell ions
   primitive index   ion index
                 1           1
                 2           5

----------------------------------------------------------------------------------------

 
 
 KPOINTS: pymatgen v2020.8.13 with grid density = 

Automatic generation of k-mesh.
 Grid dimensions read from file:
 generate k-points for:    9    9    9

 Generating k-lattice:

  Cartesian coordinates                     Fractional coordinates (reciprocal lattice)
     0.026414418  0.000000000  0.000000000     0.111111111  0.000000000  0.000000000
     0.000000000  0.026414418  0.000000000     0.000000000  0.111111111  0.000000000
     0.000000000  0.000000000  0.026414418     0.000000000  0.000000000  0.111111111

  Length of vectors
     0.026414418  0.026414418  0.026414418

  Shift w.r.t. Gamma in fractional coordinates (k-lattice)
     0.000000000  0.000000000  0.000000000

 
 Subroutine IBZKPT returns following result:
 ===========================================
 
 Found     35 irreducible k-points:
 
 Following reciprocal coordinates:
            Coordinates               Weight
  0.000000  0.000000  0.000000      1.000000
  0.111111  0.000000  0.000000      6.000000
  0.222222  0.000000  0.000000      6.000000
  0.333333  0.000000  0.000000      6.000000
  0.444444  0.000000  0.000000      6.000000
  0.111111  0.111111  0.000000     12.000000
  0.222222  0.111111  0.000000     24.000000
  0.333333  0.111111  0.000000     24.000000
  0.444444  0.111111  0.000000     24.000000
  0.222222  0.222222  0.000000     12.000000
  0.333333  0.222222  0.000000     24.000000
  0.444444  0.222222  0.000000     24.000000
  0.333333  0.333333  0.000000     12.000000
  0.444444  0.333333  0.000000     24.000000
  0.444444  0.444444  0.000000     12.000000
  0.111111  0.111111  0.111111      8.000000
  0.222222  0.111111  0.111111     24.000000
  0.333333  0.111111  0.111111     24.000000
  0.444444  0.111111  0.111111     24.000000
  0.222222  0.222222  0.111111     24.000000
  0.333333  0.222222  0.111111     48.000000
  0.444444  0.222222  0.111111     48.000000
  0.333333  0.333333  0.111111     24.000000
  0.444444  0.333333  0.111111     48.000000
  0.444444  0.444444  0.111111     24.000000
  0.222222  0.222222  0.222222      8.000000
  0.333333  0.222222  0.222222     24.000000
  0.444444  0.222222  0.222222     24.000000
  0.333333  0.333333  0.222222     24.000000
  0.444444  0.333333  0.222222     48.000000
  0.444444  0.444444  0.222222     24.000000
  0.333333  0.333333  0.333333      8.000000
  0.444444  0.333333  0.333333     24.000000
  0.444444  0.444444  0.333333     24.000000
  0.444444  0.444444  0.444444      8.000000
 
 Following cartesian coordinates:
            Coordinates               Weight
  0.000000  0.000000  0.000000      1.000000
  0.026414  0.000000  0.000000      6.000000
  0.052829  0.000000  0.000000      6.000000
  0.079243  0.000000  0.000000      6.000000
  0.105658  0.000000  0.000000      6.000000
  0.026414  0.026414  0.000000     12.000000
  0.052829  0.026414  0.000000     24.000000
  0.079243  0.026414  0.000000     24.000000
  0.105658  0.026414  0.000000     24.000000
  0.052829  0.052829  0.000000     12.000000
  0.079243  0.052829  0.000000     24.000000
  0.105658  0.052829  0.000000     24.000000
  0.079243  0.079243  0.000000     12.000000
  0.105658  0.079243  0.000000     24.000000
  0.105658  0.105658  0.000000     12.000000
  0.026414  0.026414  0.026414      8.000000
  0.052829  0.026414  0.026414     24.000000
  0.079243  0.026414  0.026414     24.000000
  0.105658  0.026414  0.026414     24.000000
  0.052829  0.052829  0.026414     24.000000
  0.079243  0.052829  0.026414     48.000000
  0.105658  0.052829  0.026414     48.000000
  0.079243  0.079243  0.026414     24.000000
  0.105658  0.079243  0.026414     48.000000
  0.105658  0.105658  0.026414     24.000000
  0.052829  0.052829  0.052829      8.000000
  0.079243  0.052829  0.052829     24.000000
  0.105658  0.052829  0.052829     24.000000
  0.079243  0.079243  0.052829     24.000000
  0.105658  0.079243  0.052829     48.000000
  0.105658  0.105658  0.052829     24.000000
  0.079243  0.079243  0.079243      8.000000
  0.105658  0.079243  0.079243     24.000000
  0.105658  0.105658  0.079243     24.000000
  0.105658  0.105658  0.105658      8.000000
 


--------------------------------------------------------------------------------------------------------




 Dimension of arrays:
   k-points           NKPTS =     35   k-points in BZ     NKDIM =     35   number of bands    NBANDS=     40
   number of dos      NEDOS =    301   number of ions     NIONS =      8
   non local maximal  LDIM  =      5   non local SUM 2l+1 LMDIM =     13
   total plane-waves  NPLWV =  64000
   max r-space proj   IRMAX =      1   max aug-charges    IRDMAX=  11741
   dimension x,y,z NGX =    40 NGY =   40 NGZ =   40
   dimension x,y,z NGXF=    80 NGYF=   80 NGZF=   80
   support grid    NGXF=    80 NGYF=   80 NGZF=   80
   ions per type =               4   4
   NGX,Y,Z   is equivalent  to a cutoff of  15.81, 15.81, 15.81 a.u.
   NGXF,Y,Z  is equivalent  to a cutoff of  31.62, 31.62, 31.62 a.u.

 SYSTEM =  MgO-rocksalt                            
 POSCAR =  Mg4 O4                                  

 Startparameter for this run:
   NWRITE =      2    write-flag & timer
   PREC   = accura    normal or accurate (medium, high low for compatibility)
   ISTART =      0    job   : 0-new  1-cont  2-samecut
   ICHARG =      2    charge: 1-file 2-atom 10-const
   ISPIN  =      1    spin polarized calculation?
   LNONCOLLINEAR =      F non collinear calculations
   LSORBIT =      F    spin-orbit coupling
   INIWAV =      1    electr: 0-lowe 1-rand  2-diag
   LASPH  =      T    aspherical Exc in radial PAW
 Electronic Relaxation 1
   ENCUT  =  800.0 eV  58.80 Ry    7.67 a.u.   9.70  9.70  9.70*2*pi/ulx,y,z
   ENINI  =  800.0     initial cutoff
   ENAUG  =  980.2 eV  augmentation charge cutoff
   NELM   =     60;   NELMIN=  4; NELMDL= -5     # of ELM steps 
   EDIFF  = 0.1E-05   stopping-criterion for ELM
   LREAL  =      F    real-space projection
   NLSPLINE    = F    spline interpolate recip. space projectors
   LCOMPAT=      F    compatible to vasp.4.4
   GGA_COMPAT  = T    GGA compatible to vasp.4.4-vasp.4.6
   LMAXPAW     = -100 max onsite density
   LMAXMIX     =    2 max onsite mixed and CHGCAR
   VOSKOWN=      0    Vosko Wilk Nusair interpolation
   ROPT   =    0.00000   0.00000
 Ionic relaxation
   EDIFFG = -.1E-01   stopping-criterion for IOM
   NSW    =    200    number of steps for IOM
   NBLOCK =      1;   KBLOCK =    200    inner block; outer block 
   IBRION =      2    ionic relax: 0-MD 1-quasi-New 2-CG
   NFREE  =      1    steps in history (QN), initial steepest desc. (CG)
   ISIF   =      3    stress and relaxation
   IWAVPR =     11    prediction:  0-non 1-charg 2-wave 3-comb
   ISYM   =      2    0-nonsym 1-usesym 2-fastsym
   LCORR  =      T    Harris-Foulkes like correction to forces

   POTIM  = 0.5000    time-step for ionic-motion
   TEIN   =    0.0    initial temperature
   TEBEG  =    0.0;   TEEND  =   0.0 temperature during run
   SMASS  =  -3.00    Nose mass-parameter (am)
   estimated Nose-frequenzy (Omega)   =  0.10E-29 period in steps = 0.13E+47 mass=  -0.404E-27a.u.
   SCALEE = 1.0000    scale energy and forces
   NPACO  =    256;   APACO  = 16.0  distance and # of slots for P.C.
   PSTRESS=    0.0 pullay stress

  Mass of Ions in am
   POMASS =  24.30 16.00
  Ionic Valenz
   ZVAL   =  10.00  6.00
  Atomic Wigner-Seitz radii
   RWIGS  =  -1.00 -1.00
  virtual crystal weights 
   VCA    =   1.00  1.00
   NELECT =      64.0000    total number of electrons
   NUPDOWN=      -1.0000    fix difference up-down

 DOS related values:
   EMIN   =  10.00;   EMAX   =-10.00  energy-range for DOS
   EFERMI =   0.00
   ISMEAR =     0;   SIGMA  =   0.05  broadening in eV -4-tet -1-fermi 0-gaus

 Electronic relaxation 2 (details)
   IALGO  =     68    algorithm
   LDIAG  =      T    sub-space diagonalisation (order eigenvalues)
   LSUBROT=      F    optimize rotation matrix (better conditioning)
   TURBO    =      0    0=normal 1=particle mesh
   IRESTART =      0    0=no restart 2=restart with 2 vectors
   NREBOOT  =      0    no. of reboots
   NMIN     =      0    reboot dimension
   EREF     =   0.00    reference energy to select bands
   IMIX   =      4    mixing-type and parameters
     AMIX     =   0.40;   BMIX     =  1.00
     AMIX_MAG =   1.60;   BMIX_MAG =  1.00
     AMIN     =   0.10
     WC   =   100.;   INIMIX=   1;  MIXPRE=   1;  MAXMIX= -45

 Intra band minimization:
   WEIMIN = 0.0010     energy-eigenvalue tresh-hold
   EBREAK =  0.62E-08  absolut break condition
   DEPER  =   0.30     relativ break condition  

   TIME   =   0.40     timestep for ELM

  volume/ion in A,a.u.               =       9.30        62.78
  Fermi-wavevector in a.u.,A,eV,Ry     =   1.556748  2.941828 32.973243  2.423465
  Thomas-Fermi vector in A             =   2.660499
 
 Write flags
   LWAVE        =      F    write WAVECAR
   LDOWNSAMPLE  =      F    k-point downsampling of WAVECAR
   LCHARG       =      F    write CHGCAR
   LVTOT        =      F    write LOCPOT, total local potential
   LVHAR        =      F    write LOCPOT, Hartree potential only
   LELF         =      F    write electronic localiz. function (ELF)
   LORBIT       =     11    0 simple, 1 ext, 2 COOP (PROOUT), +10 PAW based schemes


 Dipole corrections
   LMONO  =      F    monopole corrections only (constant potential shift)
   LDIPOL =      F    correct potential (dipole corrections)
   IDIPOL =      0    1-x, 2-y, 3-z, 4-all directions 
   EPSILON=  1.0000000 bulk dielectric constant

 Exchange correlation treatment:
   GGA     =    PE    GGA type
   LEXCH   =     8    internal setting for exchange type
   VOSKOWN=      0    Vosko Wilk Nusair interpolation
   LHFCALC =     F    Hartree Fock is set to
   LHFONE  =     F    Hartree Fock one center treatment
   AEXX    =    0.0000 exact exchange contribution

 Linear response parameters
   LEPSILON=     F    determine dielectric tensor
   LRPA    =     F    only Hartree local field effects (RPA)
   LNABLA  =     F    use nabla operator in PAW spheres
   LVEL    =     F    velocity operator in full k-point grid
   LINTERFAST=   F  fast interpolation
   KINTER  =     0    interpolate to denser k-point grid
   CSHIFT  =0.1000    complex shift for real part using Kramers Kronig
   OMEGAMAX=  -1.0    maximum frequency
   DEG_THRESHOLD= 0.2000000E-02 threshold for treating states as degnerate
   RTIME   =   -0.100 relaxation time in fs
  (WPLASMAI=    0.000 imaginary part of plasma frequency in eV, 0.658/RTIME)
   DFIELD  = 0.0000000 0.0000000 0.0000000 field for delta impulse in time
 
 Orbital magnetization related:
   ORBITALMAG=     F  switch on orbital magnetization
   LCHIMAG   =     F  perturbation theory with respect to B field
   DQ        =  0.001000  dq finite difference perturbation B field
   LLRAUG    =     F  two centre corrections for induced B field



--------------------------------------------------------------------------------------------------------


 conjugate gradient relaxation of ions
 charge density and potential will be updated during run
 non-spin polarized calculation
 RMM-DIIS sequential band-by-band and
  variant of blocked Davidson during initial phase
 perform sub-space diagonalisation
    before iterative eigenvector-optimisation
 modified Broyden-mixing scheme, WC =      100.0
 initial mixing is a Kerker type mixing with AMIX =  0.4000 and BMIX =      1.0000
 Hartree-type preconditioning will be used
 using additional bands            8
 reciprocal scheme for non local part
 use partial core corrections
 calculate Harris-corrections to forces 
   (improved forces if not selfconsistent)
 use gradient corrections 
 use of overlap-Matrix (Vanderbilt PP)
 Gauss-broadening in eV      SIGMA  =   0.05


--------------------------------------------------------------------------------------------------------


  energy-cutoff  :      800.00
  volume of cell :       74.43
      direct lattice vectors                 reciprocal lattice vectors
     4.206456931  0.000000000  0.000000000     0.237729761  0.000000000  0.000000000
     0.000000000  4.206456931  0.000000000     0.000000000  0.237729761  0.000000000
     0.000000000  0.000000000  4.206456931     0.000000000  0.000000000  0.237729761

  length of vectors
     4.206456931  4.206456931  4.206456931     0.237729761  0.237729761  0.237729761


 
 k-points in units of 2pi/SCALE and weight: pymatgen v2020.8.13 with grid density = 
   0.00000000  0.00000000  0.00000000       0.001
   0.02641442  0.00000000  0.00000000       0.008
   0.05282884  0.00000000  0.00000000       0.008
   0.07924325  0.00000000  0.00000000       0.008
   0.10565767  0.00000000  0.00000000       0.008
   0.02641442  0.02641442  0.00000000       0.016
   0.05282884  0.02641442  0.00000000       0.033
   0.07924325  0.02641442  0.00000000       0.033
   0.10565767  0.02641442  0.00000000       0.033
   0.05282884  0.05282884  0.00000000       0.016
   0.07924325  0.05282884  0.00000000       0.033
   0.10565767  0.05282884  0.00000000       0.033
   0.07924325  0.07924325  0.00000000       0.016
   0.10565767  0.07924325  0.00000000       0.033
   0.10565767  0.10565767  0.00000000       0.016
   0.02641442  0.02641442  0.02641442       0.011
   0.05282884  0.02641442  0.02641442       0.033
   0.07924325  0.02641442  0.02641442       0.033
   0.10565767  0.02641442  0.02641442       0.033
   0.05282884  0.05282884  0.02641442       0.033
   0.07924325  0.05282884  0.02641442       0.066
   0.10565767  0.05282884  0.02641442       0.066
   0.07924325  0.07924325  0.02641442       0.033
   0.10565767  0.07924325  0.02641442       0.066
   0.10565767  0.10565767  0.02641442       0.033
   0.05282884  0.05282884  0.05282884       0.011
   0.07924325  0.05282884  0.05282884       0.033
   0.10565767  0.05282884  0.05282884       0.033
   0.07924325  0.07924325  0.05282884       0.033
   0.10565767  0.07924325  0.05282884       0.066
   0.10565767  0.10565767  0.05282884       0.033
   0.07924325  0.07924325  0.07924325       0.011
   0.10565767  0.07924325  0.07924325       0.033
   0.10565767  0.10565767  0.07924325       0.033
   0.10565767  0.10565767  0.10565767       0.011
 
 k-points in reciprocal lattice and weights: pymatgen v2020.8.13 with grid density = 
   0.00000000  0.00000000  0.00000000       0.001
   0.11111111  0.00000000  0.00000000       0.008
   0.22222222  0.00000000  0.00000000       0.008
   0.33333333  0.00000000  0.00000000       0.008
   0.44444444  0.00000000  0.00000000       0.008
   0.11111111  0.11111111  0.00000000       0.016
   0.22222222  0.11111111  0.00000000       0.033
   0.33333333  0.11111111  0.00000000       0.033
   0.44444444  0.11111111  0.00000000       0.033
   0.22222222  0.22222222  0.00000000       0.016
   0.33333333  0.22222222  0.00000000       0.033
   0.44444444  0.22222222  0.00000000       0.033
   0.33333333  0.33333333  0.00000000       0.016
   0.44444444  0.33333333  0.00000000       0.033
   0.44444444  0.44444444  0.00000000       0.016
   0.11111111  0.11111111  0.11111111       0.011
   0.22222222  0.11111111  0.11111111       0.033
   0.33333333  0.11111111  0.11111111       0.033
   0.44444444  0.11111111  0.11111111       0.033
   0.22222222  0.22222222  0.11111111       0.033
   0.33333333  0.22222222  0.11111111       0.066
   0.44444444  0.22222222  0.11111111       0.066
   0.33333333  0.33333333  0.11111111       0.033
   0.44444444  0.33333333  0.11111111       0.066
   0.44444444  0.44444444  0.11111111       0.033
   0.22222222  0.22222222  0.22222222       0.011
   0.33333333  0.22222222  0.22222222       0.033
   0.44444444  0.22222222  0.22222222       0.033
   0.33333333  0.33333333  0.22222222       0.033
   0.44444444  0.33333333  0.22222222       0.066
   0.44444444  0.44444444  0.22222222       0.033
   0.33333333  0.33333333  0.33333333       0.011
   0.44444444  0.33333333  0.33333333       0.033
   0.44444444  0.44444444  0.33333333       0.033
   0.44444444  0.44444444  0.44444444       0.011
 
 position of ions in fractional coordinates (direct lattice) 
   0.00000000  0.00000000  0.00000000
   0.00000000  0.50000000  0.50000000
   0.50000000  0.00000000  0.50000000
   0.50000000  0.50000000  0.00000000
   0.50000000  0.00000000  0.00000000
   0.50000000  0.50000000  0.50000000
   0.00000000  0.00000000  0.50000000
   0.00000000  0.50000000  0.00000000
 
 position of ions in cartesian coordinates  (Angst):
   0.00000000  0.00000000  0.00000000
   0.00000000  2.10322847  2.10322847
   2.10322847  0.00000000  2.10322847
   2.10322847  2.10322847  0.00000000
   2.10322847  0.00000000  0.00000000
   2.10322847  2.10322847  2.10322847
   0.00000000  0.00000000  2.10322847
   0.00000000  2.10322847  0.00000000
 


--------------------------------------------------------------------------------------------------------


 k-point   1 :   0.0000 0.0000 0.0000  plane waves:    3887
 k-point   2 :   0.1111 0.0000 0.0000  plane waves:    3823
 k-point   3 :   0.2222 0.0000 0.0000  plane waves:    3831
 k-point   4 :   0.3333 0.0000 0.0000  plane waves:    3824
 k-point   5 :   0.4444 0.0000 0.0000  plane waves:    3836
 k-point   6 :   0.1111 0.1111 0.0000  plane waves:    3827
 k-point   7 :   0.2222 0.1111 0.0000  plane waves:    3838
 k-point   8 :   0.3333 0.1111 0.0000  plane waves:    3816
 k-point   9 :   0.4444 0.1111 0.0000  plane waves:    3843
 k-point  10 :   0.2222 0.2222 0.0000  plane waves:    3826
 k-point  11 :   0.3333 0.2222 0.0000  plane waves:    3824
 k-point  12 :   0.4444 0.2222 0.0000  plane waves:    3812
 k-point  13 :   0.3333 0.3333 0.0000  plane waves:    3820
 k-point  14 :   0.4444 0.3333 0.0000  plane waves:    3825
 k-point  15 :   0.4444 0.4444 0.0000  plane waves:    3846
 k-point  16 :   0.1111 0.1111 0.1111  plane waves:    3827
 k-point  17 :   0.2222 0.1111 0.1111  plane waves:    3825
 k-point  18 :   0.3333 0.1111 0.1111  plane waves:    3809
 k-point  19 :   0.4444 0.1111 0.1111  plane waves:    3829
 k-point  20 :   0.2222 0.2222 0.1111  plane waves:    3821
 k-point  21 :   0.3333 0.2222 0.1111  plane waves:    3833
 k-point  22 :   0.4444 0.2222 0.1111  plane waves:    3823
 k-point  23 :   0.3333 0.3333 0.1111  plane waves:    3817
 k-point  24 :   0.4444 0.3333 0.1111  plane waves:    3827
 k-point  25 :   0.4444 0.4444 0.1111  plane waves:    3821
 k-point  26 :   0.2222 0.2222 0.2222  plane waves:    3827
 k-point  27 :   0.3333 0.2222 0.2222  plane waves:    3834
 k-point  28 :   0.4444 0.2222 0.2222  plane waves:    3820
 k-point  29 :   0.3333 0.3333 0.2222  plane waves:    3825
 k-point  30 :   0.4444 0.3333 0.2222  plane waves:    3812
 k-point  31 :   0.4444 0.4444 0.2222  plane waves:    3824
 k-point  32 :   0.3333 0.3333 0.3333  plane waves:    3830
 k-point  33 :   0.4444 0.3333 0.3333  plane waves:    3824
 k-point  34 :   0.4444 0.4444 0.3333  plane waves:    3824
 k-point  35 :   0.4444 0.4444 0.4444  plane waves:    3840

 maximum and minimum number of plane-waves per node :       223      182

 maximum number of plane-waves:      3887
 maximum index in each direction: 
   IXMAX=    9   IYMAX=    9   IZMAX=    9
   IXMIN=  -10   IYMIN=  -10   IZMIN=  -10


 parallel 3D FFT for wavefunctions:
    minimum data exchange during FFTs selected (reduces bandwidth)
 parallel 3D FFT for charge:
    minimum data exchange during FFTs selected (reduces bandwidth)


 total amount of memory used by VASP MPI-rank0    34221. kBytes
=======================================================================

   base      :      30000. kBytes
   nonl-proj :       1511. kBytes
   fftplans  :        547. kBytes
   grid      :        923. kBytes
   one-center:          8. kBytes
   wavefun   :       1232. kBytes
 
     INWAV:  cpu time    0.0000: real time    0.0000
 Broyden mixing: mesh for mixing (old mesh)
   NGX = 19   NGY = 19   NGZ = 19
  (NGX  = 80   NGY  = 80   NGZ  = 80)
  gives a total of   6859 points

 initial charge density was supplied:
 charge density of overlapping atoms calculated
 number of electron      64.0000000 magnetization 
 keeping initial charge density in first step


--------------------------------------------------------------------------------------------------------


 Maximum index for augmentation-charges         1146 (set IRDMAX)


--------------------------------------------------------------------------------------------------------


 First call to EWALD:  gamma=   0.421
 Maximum number of real-space cells 3x 3x 3
 Maximum number of reciprocal cells 3x 3x 3

    FEWALD:  cpu time    0.0106: real time    0.0107


--------------------------------------- Iteration      1(   1)  ---------------------------------------


    POTLOK:  cpu time    0.0200: real time    0.1010
    SETDIJ:  cpu time    0.0931: real time    0.0977
     EDDAV:  cpu time    0.4856: real time    0.7008
       DOS:  cpu time    0.0025: real time    0.0060
    --------------------------------------------
      LOOP:  cpu time    0.6012: real time    0.9054

 eigenvalue-minimisations  :  2808
 total energy-change (2. order) : 0.9745893E+03  (-0.5226614E+04)
 number of electron      64.0000000 magnetization 
 augmentation part       64.0000000 magnetization 

 Free energy of the ion-electron system (eV)
  ---------------------------------------------------
  alpha Z        PSCENC =       329.12652186
  Ewald energy   TEWEN  =     -5164.39007194
  -Hartree energ DENC   =     -2339.14419268
  -exchange      EXHF   =         0.00000000
  -V(xc)+E(xc)   XCENC  =       377.66996541
  PAW double counting   =      6145.32585940    -6508.34924458
  entropy T*S    EENTRO =        -0.00218703
  eigenvalues    EBANDS =      -508.84388953
  atomic energy  EATOM  =      8643.19652899
  Solvation  Ediel_sol  =         0.00000000
  ---------------------------------------------------
  free energy    TOTEN  =       974.58928990 eV

  energy without entropy =      974.59147692  energy(sigma->0) =      974.59038341


--------------------------------------------------------------------------------------------------------




--------------------------------------- Iteration      1(   2)  ---------------------------------------


     EDDAV:  cpu time    0.3765: real time    0.3868
       DOS:  cpu time    0.0003: real time    0.0003
    --------------------------------------------
      LOOP:  cpu time    0.3768: real time    0.3871

 eigenvalue-minimisations  :  3200
 total energy-change (2. order) :-0.9495646E+03  (-0.9198036E+03)
 number of electron      64.0000000 magnetization 
 augmentation part       64.0000000 magnetization 

 Free energy of the ion-electron system (eV)
  ---------------------------------------------------
  alpha Z        PSCENC =       329.12652186
  Ewald energy   TEWEN  =     -5164.39007194
  -Hartree energ DENC   =     -2339.14419268
  -exchange      EXHF   =         0.00000000
  -V(xc)+E(xc)   XCENC  =       377.66996541
  PAW double counting   =      6145.32585940    -6508.34924458
  entropy T*S    EENTRO =        -0.00000000
  eigenvalues    EBANDS =     -1458.41066998
  atomic energy  EATOM  =      8643.19652899
  Solvation  Ediel_sol  =         0.00000000
  ---------------------------------------------------
  free energy    TOTEN  =        25.02469647 eV

  energy without entropy =       25.02469647  energy(sigma->0) =       25.02469647


--------------------------------------------------------------------------------------------------------




--------------------------------------- Iteration      1(   3)  ---------------------------------------


     EDDAV:  cpu time    0.4712: real time    0.4971
       DOS:  cpu time    0.0003: real time    0.0003
    --------------------------------------------
      LOOP:  cpu time    0.4715: real time    0.4973

 eigenvalue-minimisations  :  3920
 total energy-change (2. order) :-0.7009806E+02  (-0.6960601E+02)
 number of electron      64.0000000 magnetization 
 augmentation part       64.0000000 magnetization 

 Free energy of the ion-electron system (eV)
  ---------------------------------------------------
  alpha Z        PSCENC =       329.12652186
  Ewald energy   TEWEN  =     -5164.39007194
  -Hartree energ DENC   =     -2339.14419268
  -exchange      EXHF   =         0.00000000
  -V(xc)+E(xc)   XCENC  =       377.66996541
  PAW double counting   =      6145.32585940    -6508.34924458
  entropy T*S    EENTRO =        -0.00000000
  eigenvalues    EBANDS =     -1528.50873288
  atomic energy  EATOM  =      8643.19652899
  Solvation  Ediel_sol  =         0.00000000
  ---------------------------------------------------
  free energy    TOTEN  =       -45.07336643 eV

  energy without entropy =      -45.07336643  energy(sigma->0) =      -45.07336643


--------------------------------------------------------------------------------------------------------




--------------------------------------- Iteration      1(   4)  ---------------------------------------


     EDDAV:  cpu time    0.4659: real time    0.4795
       DOS:  cpu time    0.0002: real time    0.0002
    --------------------------------------------
      LOOP:  cpu time    0.4662: real time    0.4798

 eigenvalue-minimisations  :  4160
 total energy-change (2. order) :-0.8464270E+01  (-0.8423295E+01)
 number of electron      64.0000000 magnetization 
 augmentation part       64.0000000 magnetization 

 Free energy of the ion-electron system (eV)
  ---------------------------------------------------
  alpha Z        PSCENC =       329.12652186
  Ewald energy   TEWEN  =     -5164.39007194
  -Hartree energ DENC   =     -2339.14419268
  -exchange      EXHF   =         0.00000000
  -V(xc)+E(xc)   XCENC  =       377.66996541
  PAW double counting   =      6145.32585940    -6508.34924458
  entropy T*S    EENTRO =        -0.00000000
  eigenvalues    EBANDS =     -1536.97300325
  atomic energy  EATOM  =      8643.19652899
  Solvation  Ediel_sol  =         0.00000000
  ---------------------------------------------------
  free energy    TOTEN  =       -53.53763680 eV

  energy without entropy =      -53.53763680  energy(sigma->0) =      -53.53763680


--------------------------------------------------------------------------------------------------------




--------------------------------------- Iteration      1(   5)  ---------------------------------------


     EDDAV:  cpu time    0.3761: real time    0.3866
       DOS:  cpu time    0.0002: real time    0.0002
    CHARGE:  cpu time    0.0249: real time    0.0250
    MIXING:  cpu time    0.0035: real time    0.0053
    --------------------------------------------
      LOOP:  cpu time    0.4048: real time    0.4172

 eigenvalue-minimisations  :  3448
 total energy-change (2. order) :-0.3703273E+00  (-0.3703001E+00)
 number of electron      63.9999919 magnetization 
 augmentation part       18.4052264 magnetization 

 Broyden mixing:
  rms(total) = 0.17248E+01    rms(broyden)= 0.17244E+01
  rms(prec ) = 0.36827E+01
  weight for this iteration     100.00

 Free energy of the ion-electron system (eV)
  ---------------------------------------------------
  alpha Z        PSCENC =       329.12652186
  Ewald energy   TEWEN  =     -5164.39007194
  -Hartree energ DENC   =     -2339.14419268
  -exchange      EXHF   =         0.00000000
  -V(xc)+E(xc)   XCENC  =       377.66996541
  PAW double counting   =      6145.32585940    -6508.34924458
  entropy T*S    EENTRO =        -0.00000000
  eigenvalues    EBANDS =     -1537.34333058
  atomic energy  EATOM  =      8643.19652899
  Solvation  Ediel_sol  =         0.00000000
  ---------------------------------------------------
  free energy    TOTEN  =       -53.90796413 eV

  energy without entropy =      -53.90796413  energy(sigma->0) =      -53.90796413


--------------------------------------------------------------------------------------------------------




--------------------------------------- Iteration      1(   6)  ---------------------------------------


    POTLOK:  cpu time    0.0115: real time    0.0147
    SETDIJ:  cpu time    0.0879: real time    0.0883
    EDDIAG:  cpu time    0.1317: real time    0.1342
  RMM-DIIS:  cpu time    0.1345: real time    0.1353
    ORTHCH:  cpu time    0.0096: real time    0.0097
       DOS:  cpu time    0.0005: real time    0.0005
    CHARGE:  cpu time    0.0242: real time    0.0243
    MIXING:  cpu time    0.0003: real time    0.0013
    --------------------------------------------
      LOOP:  cpu time    0.4002: real time    0.4083

 eigenvalue-minimisations  :  2835
 total energy-change (2. order) : 0.6420715E+01  (-0.2021548E+01)
 number of electron      63.9999922 magnetization 
 augmentation part       17.7027629 magnetization 

 Broyden mixing:
  rms(total) = 0.57502E+00    rms(broyden)= 0.57501E+00
  rms(prec ) = 0.90838E+00
  weight for this iteration     100.00

 eigenvalues of (default mixing * dielectric matrix)
  average eigenvalue GAMMA=   1.0183
  1.0183

 Free energy of the ion-electron system (eV)
  ---------------------------------------------------
  alpha Z        PSCENC =       329.12652186
  Ewald energy   TEWEN  =     -5164.39007194
  -Hartree energ DENC   =     -2354.92060582
  -exchange      EXHF   =         0.00000000
  -V(xc)+E(xc)   XCENC  =       380.68896168
  PAW double counting   =      6234.26370168    -6620.71686474
  entropy T*S    EENTRO =        -0.00000000
  eigenvalues    EBANDS =     -1494.73542035
  atomic energy  EATOM  =      8643.19652899
  Solvation  Ediel_sol  =         0.00000000
  ---------------------------------------------------
  free energy    TOTEN  =       -47.48724864 eV

  energy without entropy =      -47.48724864  energy(sigma->0) =      -47.48724864


--------------------------------------------------------------------------------------------------------




--------------------------------------- Iteration      1(   7)  ---------------------------------------


    POTLOK:  cpu time    0.0075: real time    0.0137
    SETDIJ:  cpu time    0.0874: real time    0.0879
    EDDIAG:  cpu time    0.1273: real time    0.1281
  RMM-DIIS:  cpu time    0.1512: real time    0.1520
    ORTHCH:  cpu time    0.0092: real time    0.0092
       DOS:  cpu time    0.0003: real time    0.0003
    CHARGE:  cpu time    0.0234: real time    0.0235
    MIXING:  cpu time    0.0003: real time    0.0003
    --------------------------------------------
      LOOP:  cpu time    0.4067: real time    0.4150

 eigenvalue-minimisations  :  3272
 total energy-change (2. order) :-0.4652295E-02  (-0.1361130E+00)
 number of electron      63.9999922 magnetization 
 augmentation part       17.6232018 magnetization 

 Broyden mixing:
  rms(total) = 0.35317E+00    rms(broyden)= 0.35316E+00
  rms(prec ) = 0.53846E+00
  weight for this iteration     100.00

 eigenvalues of (default mixing * dielectric matrix)
  average eigenvalue GAMMA=   1.7540
  1.1071  2.4009

 Free energy of the ion-electron system (eV)
  ---------------------------------------------------
  alpha Z        PSCENC =       329.12652186
  Ewald energy   TEWEN  =     -5164.39007194
  -Hartree energ DENC   =     -2339.82856194
  -exchange      EXHF   =         0.00000000
  -V(xc)+E(xc)   XCENC  =       380.29703123
  PAW double counting   =      6265.98396151    -6665.74089284
  entropy T*S    EENTRO =        -0.00000000
  eigenvalues    EBANDS =     -1496.13641780
  atomic energy  EATOM  =      8643.19652899
  Solvation  Ediel_sol  =         0.00000000
  ---------------------------------------------------
  free energy    TOTEN  =       -47.49190093 eV

  energy without entropy =      -47.49190093  energy(sigma->0) =      -47.49190093


--------------------------------------------------------------------------------------------------------




--------------------------------------- Iteration      1(   8)  ---------------------------------------


    POTLOK:  cpu time    0.0107: real time    0.0161
    SETDIJ:  cpu time    0.0899: real time    0.0902
    EDDIAG:  cpu time    0.1608: real time    0.1621
  RMM-DIIS:  cpu time    0.1666: real time    0.1674
    ORTHCH:  cpu time    0.0098: real time    0.0099
       DOS:  cpu time    0.0003: real time    0.0003
    CHARGE:  cpu time    0.0244: real time    0.0245
    MIXING:  cpu time    0.0005: real time    0.0005
    --------------------------------------------
      LOOP:  cpu time    0.4631: real time    0.4710

 eigenvalue-minimisations  :  3326
 total energy-change (2. order) : 0.3043193E-01  (-0.3238717E-01)
 number of electron      63.9999922 magnetization 
 augmentation part       17.6466187 magnetization 

 Broyden mixing:
  rms(total) = 0.62802E-01    rms(broyden)= 0.62797E-01
  rms(prec ) = 0.13944E+00
  weight for this iteration     100.00

 eigenvalues of (default mixing * dielectric matrix)
  average eigenvalue GAMMA=   1.4157
  2.4507  1.0410  0.7554

 Free energy of the ion-electron system (eV)
  ---------------------------------------------------
  alpha Z        PSCENC =       329.12652186
  Ewald energy   TEWEN  =     -5164.39007194
  -Hartree energ DENC   =     -2314.31431326
  -exchange      EXHF   =         0.00000000
  -V(xc)+E(xc)   XCENC  =       379.29986855
  PAW double counting   =      6315.49500736    -6732.31995897
  entropy T*S    EENTRO =        -0.00000000
  eigenvalues    EBANDS =     -1503.55505159
  atomic energy  EATOM  =      8643.19652899
  Solvation  Ediel_sol  =         0.00000000
  ---------------------------------------------------
  free energy    TOTEN  =       -47.46146901 eV

  energy without entropy =      -47.46146901  energy(sigma->0) =      -47.46146901


--------------------------------------------------------------------------------------------------------




--------------------------------------- Iteration      1(   9)  ---------------------------------------


    POTLOK:  cpu time    0.0094: real time    0.0165
    SETDIJ:  cpu time    0.0876: real time    0.0879
    EDDIAG:  cpu time    0.1528: real time    0.1535
  RMM-DIIS:  cpu time    0.1864: real time    0.1873
    ORTHCH:  cpu time    0.0096: real time    0.0096
       DOS:  cpu time    0.0003: real time    0.0003
    CHARGE:  cpu time    0.0242: real time    0.0243
    MIXING:  cpu time    0.0004: real time    0.0004
    --------------------------------------------
      LOOP:  cpu time    0.4706: real time    0.4797

 eigenvalue-minimisations  :  3898
 total energy-change (2. order) :-0.1349221E-01  (-0.2364956E-01)
 number of electron      63.9999922 magnetization 
 augmentation part       17.5979838 magnetization 

 Broyden mixing:
  rms(total) = 0.35936E-01    rms(broyden)= 0.35925E-01
  rms(prec ) = 0.61962E-01
  weight for this iteration     100.00

 eigenvalues of (default mixing * dielectric matrix)
  average eigenvalue GAMMA=   1.3055
  2.5364  0.9850  0.8978  0.8028

 Free energy of the ion-electron system (eV)
  ---------------------------------------------------
  alpha Z        PSCENC =       329.12652186
  Ewald energy   TEWEN  =     -5164.39007194
  -Hartree energ DENC   =     -2314.92514741
  -exchange      EXHF   =         0.00000000
  -V(xc)+E(xc)   XCENC  =       379.39940357
  PAW double counting   =      6317.07591889    -6734.40268059
  entropy T*S    EENTRO =        -0.00000000
  eigenvalues    EBANDS =     -1502.55543458
  atomic energy  EATOM  =      8643.19652899
  Solvation  Ediel_sol  =         0.00000000
  ---------------------------------------------------
  free energy    TOTEN  =       -47.47496121 eV

  energy without entropy =      -47.47496121  energy(sigma->0) =      -47.47496121


--------------------------------------------------------------------------------------------------------




--------------------------------------- Iteration      1(  10)  ---------------------------------------


    POTLOK:  cpu time    0.0089: real time    0.0142
    SETDIJ:  cpu time    0.0877: real time    0.0879
    EDDIAG:  cpu time    0.1267: real time    0.1272
  RMM-DIIS:  cpu time    0.1782: real time    0.1790
    ORTHCH:  cpu time    0.0092: real time    0.0092
       DOS:  cpu time    0.0003: real time    0.0003
    CHARGE:  cpu time    0.0237: real time    0.0237
    MIXING:  cpu time    0.0004: real time    0.0022
    --------------------------------------------
      LOOP:  cpu time    0.4350: real time    0.4438

 eigenvalue-minimisations  :  3858
 total energy-change (2. order) :-0.1070738E-01  (-0.8438836E-02)
 number of electron      63.9999922 magnetization 
 augmentation part       17.5787980 magnetization 

 Broyden mixing:
  rms(total) = 0.68501E-01    rms(broyden)= 0.68498E-01
  rms(prec ) = 0.10051E+00
  weight for this iteration     100.00

 eigenvalues of (default mixing * dielectric matrix)
  average eigenvalue GAMMA=   1.6288
  2.7240  2.7240  1.0563  1.0563  0.5836

 Free energy of the ion-electron system (eV)
  ---------------------------------------------------
  alpha Z        PSCENC =       329.12652186
  Ewald energy   TEWEN  =     -5164.39007194
  -Hartree energ DENC   =     -2313.14562666
  -exchange      EXHF   =         0.00000000
  -V(xc)+E(xc)   XCENC  =       379.31427634
  PAW double counting   =      6318.88883678    -6737.19644106
  entropy T*S    EENTRO =        -0.00000000
  eigenvalues    EBANDS =     -1503.27969290
  atomic energy  EATOM  =      8643.19652899
  Solvation  Ediel_sol  =         0.00000000
  ---------------------------------------------------
  free energy    TOTEN  =       -47.48566859 eV

  energy without entropy =      -47.48566859  energy(sigma->0) =      -47.48566859


--------------------------------------------------------------------------------------------------------




--------------------------------------- Iteration      1(  11)  ---------------------------------------


    POTLOK:  cpu time    0.0105: real time    0.0137
    SETDIJ:  cpu time    0.0873: real time    0.0876
    EDDIAG:  cpu time    0.1231: real time    0.1237
  RMM-DIIS:  cpu time    0.1622: real time    0.1629
    ORTHCH:  cpu time    0.0091: real time    0.0091
       DOS:  cpu time    0.0003: real time    0.0003
    CHARGE:  cpu time    0.0233: real time    0.0234
    MIXING:  cpu time    0.0004: real time    0.0004
    --------------------------------------------
      LOOP:  cpu time    0.4162: real time    0.4210

 eigenvalue-minimisations  :  3500
 total energy-change (2. order) :-0.5119462E-02  (-0.6844655E-02)
 number of electron      63.9999923 magnetization 
 augmentation part       17.5406694 magnetization 

 Broyden mixing:
  rms(total) = 0.23887E-01    rms(broyden)= 0.23880E-01
  rms(prec ) = 0.44896E-01
  weight for this iteration     100.00

 eigenvalues of (default mixing * dielectric matrix)
  average eigenvalue GAMMA=   1.4413
  2.7518  2.7518  1.0312  1.0312  0.7052  0.3766

 Free energy of the ion-electron system (eV)
  ---------------------------------------------------
  alpha Z        PSCENC =       329.12652186
  Ewald energy   TEWEN  =     -5164.39007194
  -Hartree energ DENC   =     -2317.48058622
  -exchange      EXHF   =         0.00000000
  -V(xc)+E(xc)   XCENC  =       379.57066261
  PAW double counting   =      6313.33000181    -6729.67147122
  entropy T*S    EENTRO =        -0.00000000
  eigenvalues    EBANDS =     -1501.17237396
  atomic energy  EATOM  =      8643.19652899
  Solvation  Ediel_sol  =         0.00000000
  ---------------------------------------------------
  free energy    TOTEN  =       -47.49078805 eV

  energy without entropy =      -47.49078805  energy(sigma->0) =      -47.49078805


--------------------------------------------------------------------------------------------------------




--------------------------------------- Iteration      1(  12)  ---------------------------------------


    POTLOK:  cpu time    0.0102: real time    0.0134
    SETDIJ:  cpu time    0.0876: real time    0.0879
    EDDIAG:  cpu time    0.1237: real time    0.1242
  RMM-DIIS:  cpu time    0.2006: real time    0.2015
    ORTHCH:  cpu time    0.0108: real time    0.0108
       DOS:  cpu time    0.0003: real time    0.0003
    CHARGE:  cpu time    0.0252: real time    0.0253
    MIXING:  cpu time    0.0005: real time    0.0005
    --------------------------------------------
      LOOP:  cpu time    0.4588: real time    0.4637

 eigenvalue-minimisations  :  3812
 total energy-change (2. order) :-0.2027374E-02  (-0.2670737E-02)
 number of electron      63.9999923 magnetization 
 augmentation part       17.5343824 magnetization 

 Broyden mixing:
  rms(total) = 0.20527E-01    rms(broyden)= 0.20525E-01
  rms(prec ) = 0.35636E-01
  weight for this iteration     100.00

 eigenvalues of (default mixing * dielectric matrix)
  average eigenvalue GAMMA=   1.3465
  2.7692  2.7692  1.0091  1.0091  0.6773  0.5957  0.5957

 Free energy of the ion-electron system (eV)
  ---------------------------------------------------
  alpha Z        PSCENC =       329.12652186
  Ewald energy   TEWEN  =     -5164.39007194
  -Hartree energ DENC   =     -2317.26955429
  -exchange      EXHF   =         0.00000000
  -V(xc)+E(xc)   XCENC  =       379.55150831
  PAW double counting   =      6314.56015367    -6730.84693858
  entropy T*S    EENTRO =        -0.00000000
  eigenvalues    EBANDS =     -1501.42096345
  atomic energy  EATOM  =      8643.19652899
  Solvation  Ediel_sol  =         0.00000000
  ---------------------------------------------------
  free energy    TOTEN  =       -47.49281543 eV

  energy without entropy =      -47.49281543  energy(sigma->0) =      -47.49281543


--------------------------------------------------------------------------------------------------------




--------------------------------------- Iteration      1(  13)  ---------------------------------------


    POTLOK:  cpu time    0.0080: real time    0.0158
    SETDIJ:  cpu time    0.0871: real time    0.0875
    EDDIAG:  cpu time    0.1371: real time    0.1377
  RMM-DIIS:  cpu time    0.2033: real time    0.2042
    ORTHCH:  cpu time    0.0096: real time    0.0096
       DOS:  cpu time    0.0003: real time    0.0003
    CHARGE:  cpu time    0.0239: real time    0.0240
    MIXING:  cpu time    0.0004: real time    0.0004
    --------------------------------------------
      LOOP:  cpu time    0.4697: real time    0.4794

 eigenvalue-minimisations  :  4098
 total energy-change (2. order) :-0.1169612E-02  (-0.1106203E-02)
 number of electron      63.9999923 magnetization 
 augmentation part       17.5262275 magnetization 

 Broyden mixing:
  rms(total) = 0.23487E-01    rms(broyden)= 0.23486E-01
  rms(prec ) = 0.40716E-01
  weight for this iteration     100.00

 eigenvalues of (default mixing * dielectric matrix)
  average eigenvalue GAMMA=   1.7159
  4.1161  2.6116  2.6116  0.9895  0.9895  0.9184  0.9184  0.5719

 Free energy of the ion-electron system (eV)
  ---------------------------------------------------
  alpha Z        PSCENC =       329.12652186
  Ewald energy   TEWEN  =     -5164.39007194
  -Hartree energ DENC   =     -2317.33930888
  -exchange      EXHF   =         0.00000000
  -V(xc)+E(xc)   XCENC  =       379.55315585
  PAW double counting   =      6315.91872849    -6732.13126473
  entropy T*S    EENTRO =        -0.00000000
  eigenvalues    EBANDS =     -1501.42827467
  atomic energy  EATOM  =      8643.19652899
  Solvation  Ediel_sol  =         0.00000000
  ---------------------------------------------------
  free energy    TOTEN  =       -47.49398504 eV

  energy without entropy =      -47.49398504  energy(sigma->0) =      -47.49398504


--------------------------------------------------------------------------------------------------------




--------------------------------------- Iteration      1(  14)  ---------------------------------------


    POTLOK:  cpu time    0.0058: real time    0.0133
    SETDIJ:  cpu time    0.0873: real time    0.0875
    EDDIAG:  cpu time    0.1291: real time    0.1295
  RMM-DIIS:  cpu time    0.1745: real time    0.1753
    ORTHCH:  cpu time    0.0094: real time    0.0095
       DOS:  cpu time    0.0003: real time    0.0003
    CHARGE:  cpu time    0.0238: real time    0.0239
    MIXING:  cpu time    0.0004: real time    0.0004
    --------------------------------------------
      LOOP:  cpu time    0.4305: real time    0.4396

 eigenvalue-minimisations  :  3711
 total energy-change (2. order) :-0.4152445E-02  (-0.1040932E-02)
 number of electron      63.9999923 magnetization 
 augmentation part       17.5100992 magnetization 

 Broyden mixing:
  rms(total) = 0.61389E-01    rms(broyden)= 0.61388E-01
  rms(prec ) = 0.10699E+00
  weight for this iteration     100.00

 eigenvalues of (default mixing * dielectric matrix)
  average eigenvalue GAMMA=   1.4267
  2.5715  2.3906  1.6884  1.6884  1.3172  0.9119  0.8619  0.8619  0.5489

 Free energy of the ion-electron system (eV)
  ---------------------------------------------------
  alpha Z        PSCENC =       329.12652186
  Ewald energy   TEWEN  =     -5164.39007194
  -Hartree energ DENC   =     -2316.26460959
  -exchange      EXHF   =         0.00000000
  -V(xc)+E(xc)   XCENC  =       379.54469389
  PAW double counting   =      6302.59733824    -6720.18919126
  entropy T*S    EENTRO =        -0.00000000
  eigenvalues    EBANDS =     -1501.11934768
  atomic energy  EATOM  =      8643.19652899
  Solvation  Ediel_sol  =         0.00000000
  ---------------------------------------------------
  free energy    TOTEN  =       -47.49813749 eV

  energy without entropy =      -47.49813749  energy(sigma->0) =      -47.49813749


--------------------------------------------------------------------------------------------------------




--------------------------------------- Iteration      1(  15)  ---------------------------------------


    POTLOK:  cpu time    0.0091: real time    0.0162
    SETDIJ:  cpu time    0.0876: real time    0.0879
    EDDIAG:  cpu time    0.1222: real time    0.1228
  RMM-DIIS:  cpu time    0.1788: real time    0.1798
    ORTHCH:  cpu time    0.0091: real time    0.0091
       DOS:  cpu time    0.0003: real time    0.0003
    CHARGE:  cpu time    0.0234: real time    0.0235
    MIXING:  cpu time    0.0004: real time    0.0004
    --------------------------------------------
      LOOP:  cpu time    0.4309: real time    0.4399

 eigenvalue-minimisations  :  3859
 total energy-change (2. order) : 0.3813314E-02  (-0.8381549E-03)
 number of electron      63.9999923 magnetization 
 augmentation part       17.5201685 magnetization 

 Broyden mixing:
  rms(total) = 0.22468E-01    rms(broyden)= 0.22467E-01
  rms(prec ) = 0.38014E-01
  weight for this iteration     100.00

 eigenvalues of (default mixing * dielectric matrix)
  average eigenvalue GAMMA=   1.4755
  2.9966  2.9966  2.3058  1.1225  1.1225  0.9609  0.9609  0.8849  0.8849  0.5197

 Free energy of the ion-electron system (eV)
  ---------------------------------------------------
  alpha Z        PSCENC =       329.12652186
  Ewald energy   TEWEN  =     -5164.39007194
  -Hartree energ DENC   =     -2317.54005623
  -exchange      EXHF   =         0.00000000
  -V(xc)+E(xc)   XCENC  =       379.55512179
  PAW double counting   =      6320.10971403    -6736.08583341
  entropy T*S    EENTRO =        -0.00000000
  eigenvalues    EBANDS =     -1501.46624926
  atomic energy  EATOM  =      8643.19652899
  Solvation  Ediel_sol  =         0.00000000
  ---------------------------------------------------
  free energy    TOTEN  =       -47.49432417 eV

  energy without entropy =      -47.49432417  energy(sigma->0) =      -47.49432417


--------------------------------------------------------------------------------------------------------




--------------------------------------- Iteration      1(  16)  ---------------------------------------


    POTLOK:  cpu time    0.0106: real time    0.0145
    SETDIJ:  cpu time    0.0872: real time    0.0875
    EDDIAG:  cpu time    0.1224: real time    0.1230
  RMM-DIIS:  cpu time    0.1617: real time    0.1625
    ORTHCH:  cpu time    0.0091: real time    0.0091
       DOS:  cpu time    0.0003: real time    0.0003
    CHARGE:  cpu time    0.0234: real time    0.0234
    MIXING:  cpu time    0.0004: real time    0.0004
    --------------------------------------------
      LOOP:  cpu time    0.4150: real time    0.4207

 eigenvalue-minimisations  :  3503
 total energy-change (2. order) : 0.3774348E-03  (-0.2672815E-03)
 number of electron      63.9999923 magnetization 
 augmentation part       17.5255912 magnetization 

 Broyden mixing:
  rms(total) = 0.36812E-02    rms(broyden)= 0.36780E-02
  rms(prec ) = 0.49323E-02
  weight for this iteration     100.00

 eigenvalues of (default mixing * dielectric matrix)
  average eigenvalue GAMMA=   1.4806
  3.2200  3.2200  2.2597  1.3474  1.3474  1.0382  1.0382  0.8924  0.8226  0.5505
  0.5505

 Free energy of the ion-electron system (eV)
  ---------------------------------------------------
  alpha Z        PSCENC =       329.12652186
  Ewald energy   TEWEN  =     -5164.39007194
  -Hartree energ DENC   =     -2318.22340161
  -exchange      EXHF   =         0.00000000
  -V(xc)+E(xc)   XCENC  =       379.56401513
  PAW double counting   =      6327.79568426    -6742.98732157
  entropy T*S    EENTRO =        -0.00000000
  eigenvalues    EBANDS =     -1501.57590186
  atomic energy  EATOM  =      8643.19652899
  Solvation  Ediel_sol  =         0.00000000
  ---------------------------------------------------
  free energy    TOTEN  =       -47.49394674 eV

  energy without entropy =      -47.49394674  energy(sigma->0) =      -47.49394674


--------------------------------------------------------------------------------------------------------




--------------------------------------- Iteration      1(  17)  ---------------------------------------


    POTLOK:  cpu time    0.0085: real time    0.0138
    SETDIJ:  cpu time    0.0872: real time    0.0876
    EDDIAG:  cpu time    0.1354: real time    0.1359
  RMM-DIIS:  cpu time    0.1947: real time    0.1956
    ORTHCH:  cpu time    0.0097: real time    0.0098
       DOS:  cpu time    0.0003: real time    0.0003
    CHARGE:  cpu time    0.0238: real time    0.0239
    MIXING:  cpu time    0.0005: real time    0.0005
    --------------------------------------------
      LOOP:  cpu time    0.4602: real time    0.4673

 eigenvalue-minimisations  :  3962
 total energy-change (2. order) :-0.5809443E-04  (-0.5835330E-04)
 number of electron      63.9999923 magnetization 
 augmentation part       17.5252082 magnetization 

 Broyden mixing:
  rms(total) = 0.23367E-02    rms(broyden)= 0.23366E-02
  rms(prec ) = 0.30654E-02
  weight for this iteration     100.00

 eigenvalues of (default mixing * dielectric matrix)
  average eigenvalue GAMMA=   1.4328
  3.2687  3.2687  2.2834  1.3380  1.3380  1.0474  1.0474  0.8478  0.8478  0.7116
  0.5283  0.6661

 Free energy of the ion-electron system (eV)
  ---------------------------------------------------
  alpha Z        PSCENC =       329.12652186
  Ewald energy   TEWEN  =     -5164.39007194
  -Hartree energ DENC   =     -2318.35399731
  -exchange      EXHF   =         0.00000000
  -V(xc)+E(xc)   XCENC  =       379.56896645
  PAW double counting   =      6328.42829965    -6743.53504070
  entropy T*S    EENTRO =        -0.00000000
  eigenvalues    EBANDS =     -1501.53521183
  atomic energy  EATOM  =      8643.19652899
  Solvation  Ediel_sol  =         0.00000000
  ---------------------------------------------------
  free energy    TOTEN  =       -47.49400483 eV

  energy without entropy =      -47.49400483  energy(sigma->0) =      -47.49400483


--------------------------------------------------------------------------------------------------------




--------------------------------------- Iteration      1(  18)  ---------------------------------------


    POTLOK:  cpu time    0.0092: real time    0.0150
    SETDIJ:  cpu time    0.0876: real time    0.0879
    EDDIAG:  cpu time    0.1451: real time    0.1456
  RMM-DIIS:  cpu time    0.1720: real time    0.1729
    ORTHCH:  cpu time    0.0099: real time    0.0099
       DOS:  cpu time    0.0003: real time    0.0003
    CHARGE:  cpu time    0.0245: real time    0.0246
    MIXING:  cpu time    0.0005: real time    0.0005
    --------------------------------------------
      LOOP:  cpu time    0.4492: real time    0.4567

 eigenvalue-minimisations  :  3643
 total energy-change (2. order) :-0.3569338E-04  (-0.3294873E-04)
 number of electron      63.9999923 magnetization 
 augmentation part       17.5243721 magnetization 

 Broyden mixing:
  rms(total) = 0.24361E-02    rms(broyden)= 0.24361E-02
  rms(prec ) = 0.32998E-02
  weight for this iteration     100.00

 eigenvalues of (default mixing * dielectric matrix)
  average eigenvalue GAMMA=   1.4585
  3.2964  3.2964  1.9685  2.2949  1.3545  1.3545  1.0326  1.0326  0.8605  0.8605
  0.5696  0.5696  0.4698

 Free energy of the ion-electron system (eV)
  ---------------------------------------------------
  alpha Z        PSCENC =       329.12652186
  Ewald energy   TEWEN  =     -5164.39007194
  -Hartree energ DENC   =     -2318.38266997
  -exchange      EXHF   =         0.00000000
  -V(xc)+E(xc)   XCENC  =       379.57073512
  PAW double counting   =      6328.34794757    -6743.44731713
  entropy T*S    EENTRO =        -0.00000000
  eigenvalues    EBANDS =     -1501.51571503
  atomic energy  EATOM  =      8643.19652899
  Solvation  Ediel_sol  =         0.00000000
  ---------------------------------------------------
  free energy    TOTEN  =       -47.49404052 eV

  energy without entropy =      -47.49404052  energy(sigma->0) =      -47.49404052


--------------------------------------------------------------------------------------------------------




--------------------------------------- Iteration      1(  19)  ---------------------------------------


    POTLOK:  cpu time    0.0111: real time    0.0145
    SETDIJ:  cpu time    0.0873: real time    0.0877
    EDDIAG:  cpu time    0.1226: real time    0.1231
  RMM-DIIS:  cpu time    0.1724: real time    0.1733
    ORTHCH:  cpu time    0.0095: real time    0.0096
       DOS:  cpu time    0.0003: real time    0.0003
    CHARGE:  cpu time    0.0237: real time    0.0238
    MIXING:  cpu time    0.0005: real time    0.0005
    --------------------------------------------
      LOOP:  cpu time    0.4274: real time    0.4328

 eigenvalue-minimisations  :  3586
 total energy-change (2. order) :-0.1879816E-04  (-0.1750709E-04)
 number of electron      63.9999923 magnetization 
 augmentation part       17.5236988 magnetization 

 Broyden mixing:
  rms(total) = 0.11536E-02    rms(broyden)= 0.11536E-02
  rms(prec ) = 0.21685E-02
  weight for this iteration     100.00

 eigenvalues of (default mixing * dielectric matrix)
  average eigenvalue GAMMA=   1.5088
  3.9540  2.9205  2.5494  1.7018  1.7018  1.2751  1.1360  1.1360  0.9269  0.9269
  0.8329  0.8329  0.7043  0.5251

 Free energy of the ion-electron system (eV)
  ---------------------------------------------------
  alpha Z        PSCENC =       329.12652186
  Ewald energy   TEWEN  =     -5164.39007194
  -Hartree energ DENC   =     -2318.54948305
  -exchange      EXHF   =         0.00000000
  -V(xc)+E(xc)   XCENC  =       379.57816149
  PAW double counting   =      6328.89213521    -6743.88303945
  entropy T*S    EENTRO =        -0.00000000
  eigenvalues    EBANDS =     -1501.46481244
  atomic energy  EATOM  =      8643.19652899
  Solvation  Ediel_sol  =         0.00000000
  ---------------------------------------------------
  free energy    TOTEN  =       -47.49405932 eV

  energy without entropy =      -47.49405932  energy(sigma->0) =      -47.49405932


--------------------------------------------------------------------------------------------------------




--------------------------------------- Iteration      1(  20)  ---------------------------------------


    POTLOK:  cpu time    0.0103: real time    0.0145
    SETDIJ:  cpu time    0.0877: real time    0.0880
    EDDIAG:  cpu time    0.1257: real time    0.1261
  RMM-DIIS:  cpu time    0.1616: real time    0.1623
    ORTHCH:  cpu time    0.0092: real time    0.0092
       DOS:  cpu time    0.0003: real time    0.0003
    CHARGE:  cpu time    0.0235: real time    0.0236
    MIXING:  cpu time    0.0005: real time    0.0005
    --------------------------------------------
      LOOP:  cpu time    0.4189: real time    0.4245

 eigenvalue-minimisations  :  3380
 total energy-change (2. order) :-0.8367504E-05  (-0.9840500E-05)
 number of electron      63.9999923 magnetization 
 augmentation part       17.5237498 magnetization 

 Broyden mixing:
  rms(total) = 0.50740E-03    rms(broyden)= 0.50739E-03
  rms(prec ) = 0.84330E-03
  weight for this iteration     100.00

 eigenvalues of (default mixing * dielectric matrix)
  average eigenvalue GAMMA=   1.4727
  3.9571  2.9560  2.5121  1.6531  1.6531  1.3285  1.3285  1.0416  1.0416  0.8911
  0.8911  0.8373  0.5259  0.7369  0.7369

 Free energy of the ion-electron system (eV)
  ---------------------------------------------------
  alpha Z        PSCENC =       329.12652186
  Ewald energy   TEWEN  =     -5164.39007194
  -Hartree energ DENC   =     -2318.54433449
  -exchange      EXHF   =         0.00000000
  -V(xc)+E(xc)   XCENC  =       379.57717784
  PAW double counting   =      6328.92095127    -6743.90336515
  entropy T*S    EENTRO =        -0.00000000
  eigenvalues    EBANDS =     -1501.47747607
  atomic energy  EATOM  =      8643.19652899
  Solvation  Ediel_sol  =         0.00000000
  ---------------------------------------------------
  free energy    TOTEN  =       -47.49406769 eV

  energy without entropy =      -47.49406769  energy(sigma->0) =      -47.49406769


--------------------------------------------------------------------------------------------------------




--------------------------------------- Iteration      1(  21)  ---------------------------------------


    POTLOK:  cpu time    0.0089: real time    0.0145
    SETDIJ:  cpu time    0.0874: real time    0.0877
    EDDIAG:  cpu time    0.1224: real time    0.1229
  RMM-DIIS:  cpu time    0.1965: real time    0.1974
    ORTHCH:  cpu time    0.0103: real time    0.0103
       DOS:  cpu time    0.0002: real time    0.0002
    CHARGE:  cpu time    0.0253: real time    0.0254
    MIXING:  cpu time    0.0008: real time    0.0008
    --------------------------------------------
      LOOP:  cpu time    0.4518: real time    0.4593

 eigenvalue-minimisations  :  3260
 total energy-change (2. order) :-0.6892968E-05  (-0.6439808E-05)
 number of electron      63.9999923 magnetization 
 augmentation part       17.5235778 magnetization 

 Broyden mixing:
  rms(total) = 0.52516E-03    rms(broyden)= 0.52515E-03
  rms(prec ) = 0.86779E-03
  weight for this iteration     100.00

 eigenvalues of (default mixing * dielectric matrix)
  average eigenvalue GAMMA=   1.5027
  3.8977  2.8993  2.6272  2.3884  1.7367  1.7367  0.9932  0.9932  1.0589  1.0370
  0.9631  0.9631  0.7578  0.7578  0.5253  0.7080

 Free energy of the ion-electron system (eV)
  ---------------------------------------------------
  alpha Z        PSCENC =       329.12652186
  Ewald energy   TEWEN  =     -5164.39007194
  -Hartree energ DENC   =     -2318.54713715
  -exchange      EXHF   =         0.00000000
  -V(xc)+E(xc)   XCENC  =       379.57724001
  PAW double counting   =      6328.91371297    -6743.89322749
  entropy T*S    EENTRO =        -0.00000000
  eigenvalues    EBANDS =     -1501.47764183
  atomic energy  EATOM  =      8643.19652899
  Solvation  Ediel_sol  =         0.00000000
  ---------------------------------------------------
  free energy    TOTEN  =       -47.49407458 eV

  energy without entropy =      -47.49407458  energy(sigma->0) =      -47.49407458


--------------------------------------------------------------------------------------------------------




--------------------------------------- Iteration      1(  22)  ---------------------------------------


    POTLOK:  cpu time    0.0058: real time    0.0132
    SETDIJ:  cpu time    0.0862: real time    0.0882
    EDDIAG:  cpu time    0.1282: real time    0.1302
  RMM-DIIS:  cpu time    0.1589: real time    0.1596
    ORTHCH:  cpu time    0.0091: real time    0.0091
       DOS:  cpu time    0.0003: real time    0.0003
    CHARGE:  cpu time    0.0234: real time    0.0235
    MIXING:  cpu time    0.0005: real time    0.0005
    --------------------------------------------
      LOOP:  cpu time    0.4123: real time    0.4246

 eigenvalue-minimisations  :  3000
 total energy-change (2. order) :-0.3999732E-05  (-0.3879221E-05)
 number of electron      63.9999923 magnetization 
 augmentation part       17.5234889 magnetization 

 Broyden mixing:
  rms(total) = 0.43415E-03    rms(broyden)= 0.43414E-03
  rms(prec ) = 0.70219E-03
  weight for this iteration     100.00

 eigenvalues of (default mixing * dielectric matrix)
  average eigenvalue GAMMA=   1.5638
  5.1886  2.6414  2.6414  2.4203  1.7901  1.7901  1.2230  1.2230  1.1197  1.0027
  1.0027  0.8599  0.8599  0.5255  0.7818  0.7818  0.7325

 Free energy of the ion-electron system (eV)
  ---------------------------------------------------
  alpha Z        PSCENC =       329.12652186
  Ewald energy   TEWEN  =     -5164.39007194
  -Hartree energ DENC   =     -2318.55272581
  -exchange      EXHF   =         0.00000000
  -V(xc)+E(xc)   XCENC  =       379.57735908
  PAW double counting   =      6328.97245296    -6743.94547149
  entropy T*S    EENTRO =        -0.00000000
  eigenvalues    EBANDS =     -1501.47867223
  atomic energy  EATOM  =      8643.19652899
  Solvation  Ediel_sol  =         0.00000000
  ---------------------------------------------------
  free energy    TOTEN  =       -47.49407858 eV

  energy without entropy =      -47.49407858  energy(sigma->0) =      -47.49407858


--------------------------------------------------------------------------------------------------------




--------------------------------------- Iteration      1(  23)  ---------------------------------------


    POTLOK:  cpu time    0.0066: real time    0.0136
    SETDIJ:  cpu time    0.0874: real time    0.0877
    EDDIAG:  cpu time    0.1213: real time    0.1217
  RMM-DIIS:  cpu time    0.1470: real time    0.1478
    ORTHCH:  cpu time    0.0091: real time    0.0091
       DOS:  cpu time    0.0003: real time    0.0002
    CHARGE:  cpu time    0.0234: real time    0.0235
    MIXING:  cpu time    0.0005: real time    0.0005
    --------------------------------------------
      LOOP:  cpu time    0.3955: real time    0.4040

 eigenvalue-minimisations  :  3039
 total energy-change (2. order) :-0.2265839E-05  (-0.2501144E-05)
 number of electron      63.9999923 magnetization 
 augmentation part       17.5235246 magnetization 

 Broyden mixing:
  rms(total) = 0.12856E-03    rms(broyden)= 0.12856E-03
  rms(prec ) = 0.21643E-03
  weight for this iteration     100.00

 eigenvalues of (default mixing * dielectric matrix)
  average eigenvalue GAMMA=   1.4762
  4.7675  2.9281  1.8436  1.8436  2.2325  2.0250  1.2046  1.2046  1.2341  1.0830
  1.0830  0.8686  0.8686  0.7884  0.7884  0.7318  0.5253  0.5509

 Free energy of the ion-electron system (eV)
  ---------------------------------------------------
  alpha Z        PSCENC =       329.12652186
  Ewald energy   TEWEN  =     -5164.39007194
  -Hartree energ DENC   =     -2318.56848358
[...]
     24      -0.4462      2.00000
     25       0.7910      2.00000
     26       1.1846      2.00000
     27       1.1846      2.00000
     28       1.8292      2.00000
     29       1.8394      2.00000
     30       1.8394      2.00000
     31       2.1577      2.00000
     32       2.3340      2.00000
     33      10.0928      0.00000
     34      11.8315      0.00000
     35      11.8315      0.00000
     36      12.1454      0.00000
     37      14.3309      0.00000
     38      14.3314      0.00000
     39      14.6130      0.00000
     40      14.8189      0.00000

 k-point    30 :       0.4444    0.3333    0.2222
  band No.  band energies     occupation 
      1     -69.6390      2.00000
      2     -69.6379      2.00000
      3     -69.6367      2.00000
      4     -69.6364      2.00000
      5     -36.4416      2.00000
      6     -36.4411      2.00000
      7     -36.4370      2.00000
      8     -36.4323      2.00000
      9     -36.4009      2.00000
     10     -36.3987      2.00000
     11     -36.3908      2.00000
     12     -36.3880      2.00000
     13     -36.3879      2.00000
     14     -36.3864      2.00000
     15     -36.3854      2.00000
     16     -36.3816      2.00000
     17     -13.4516      2.00000
     18     -13.2799      2.00000
     19     -13.0767      2.00000
     20     -13.0381      2.00000
     21      -1.2308      2.00000
     22      -1.2116      2.00000
     23      -1.0290      2.00000
     24      -0.8055      2.00000
     25       0.9333      2.00000
     26       1.0791      2.00000
     27       1.6072      2.00000
     28       1.8654      2.00000
     29       1.8741      2.00000
     30       1.9301      2.00000
     31       2.0143      2.00000
     32       2.2046      2.00000
     33      10.5701      0.00000
     34      11.1774      0.00000
     35      11.8760      0.00000
     36      11.9788      0.00000
     37      14.4641      0.00000
     38      14.6237      0.00000
     39      14.6414      0.00000
     40      14.7265      0.00000

 k-point    31 :       0.4444    0.4444    0.2222
  band No.  band energies     occupation 
      1     -69.6382      2.00000
      2     -69.6375      2.00000
      3     -69.6375      2.00000
      4     -69.6369      2.00000
      5     -36.4430      2.00000
      6     -36.4414      2.00000
      7     -36.4414      2.00000
      8     -36.4382      2.00000
      9     -36.3970      2.00000
     10     -36.3937      2.00000
     11     -36.3937      2.00000
     12     -36.3896      2.00000
     13     -36.3853      2.00000
     14     -36.3843      2.00000
     15     -36.3843      2.00000
     16     -36.3818      2.00000
     17     -13.3178      2.00000
     18     -13.1870      2.00000
     19     -13.1870      2.00000
     20     -13.1027      2.00000
     21      -1.3069      2.00000
     22      -1.2339      2.00000
     23      -1.2339      2.00000
     24      -1.0900      2.00000
     25       1.1880      2.00000
     26       1.4225      2.00000
     27       1.4225      2.00000
     28       1.7051      2.00000
     29       2.0047      2.00000
     30       2.0497      2.00000
     31       2.0497      2.00000
     32       2.1809      2.00000
     33      10.8606      0.00000
     34      11.3090      0.00000
     35      11.3091      0.00000
     36      11.5781      0.00000
     37      14.6772      0.00000
     38      14.6775      0.00000
     39      14.6880      0.00000
     40      14.7657      0.00000

 k-point    32 :       0.3333    0.3333    0.3333
  band No.  band energies     occupation 
      1     -69.6394      2.00000
      2     -69.6369      2.00000
      3     -69.6369      2.00000
      4     -69.6369      2.00000
      5     -36.4436      2.00000
      6     -36.4436      2.00000
      7     -36.4436      2.00000
      8     -36.4336      2.00000
      9     -36.3941      2.00000
     10     -36.3941      2.00000
     11     -36.3941      2.00000
     12     -36.3879      2.00000
     13     -36.3879      2.00000
     14     -36.3879      2.00000
     15     -36.3814      2.00000
     16     -36.3814      2.00000
     17     -13.4994      2.00000
     18     -13.1032      2.00000
     19     -13.1032      2.00000
     20     -13.1032      2.00000
     21      -1.3291      2.00000
     22      -1.3291      2.00000
     23      -1.3291      2.00000
     24      -0.8589      2.00000
     25       1.3329      2.00000
     26       1.3329      2.00000
     27       1.3329      2.00000
     28       1.9118      2.00000
     29       1.9118      2.00000
     30       1.9118      2.00000
     31       2.2411      2.00000
     32       2.2411      2.00000
     33      10.1792      0.00000
     34      11.5258      0.00000
     35      11.5258      0.00000
     36      11.5258      0.00000
     37      14.6560      0.00000
     38      14.6561      0.00000
     39      14.6560      0.00000
     40      14.8171      0.00000

 k-point    33 :       0.4444    0.3333    0.3333
  band No.  band energies     occupation 
      1     -69.6385      2.00000
      2     -69.6377      2.00000
      3     -69.6369      2.00000
      4     -69.6369      2.00000
      5     -36.4465      2.00000
      6     -36.4465      2.00000
      7     -36.4436      2.00000
      8     -36.4400      2.00000
      9     -36.3930      2.00000
     10     -36.3930      2.00000
     11     -36.3870      2.00000
     12     -36.3865      2.00000
     13     -36.3865      2.00000
     14     -36.3858      2.00000
     15     -36.3835      2.00000
     16     -36.3826      2.00000
     17     -13.3589      2.00000
     18     -13.2207      2.00000
     19     -13.0870      2.00000
     20     -13.0870      2.00000
     21      -1.4700      2.00000
     22      -1.4700      2.00000
     23      -1.3409      2.00000
     24      -1.1755      2.00000
     25       1.4181      2.00000
     26       1.4181      2.00000
     27       1.7956      2.00000
     28       1.9523      2.00000
     29       1.9523      2.00000
     30       2.0159      2.00000
     31       2.1167      2.00000
     32       2.1303      2.00000
     33      10.4586      0.00000
     34      10.9290      0.00000
     35      11.3665      0.00000
     36      11.3665      0.00000
     37      14.7268      0.00000
     38      14.7863      0.00000
     39      14.8298      0.00000
     40      14.8299      0.00000

 k-point    34 :       0.4444    0.4444    0.3333
  band No.  band energies     occupation 
      1     -69.6380      2.00000
      2     -69.6375      2.00000
      3     -69.6375      2.00000
      4     -69.6372      2.00000
      5     -36.4489      2.00000
      6     -36.4479      2.00000
      7     -36.4479      2.00000
      8     -36.4456      2.00000
      9     -36.3896      2.00000
     10     -36.3877      2.00000
     11     -36.3877      2.00000
     12     -36.3850      2.00000
     13     -36.3846      2.00000
     14     -36.3842      2.00000
     15     -36.3842      2.00000
     16     -36.3824      2.00000
     17     -13.2560      2.00000
     18     -13.1611      2.00000
     19     -13.1611      2.00000
     20     -13.1144      2.00000
     21      -1.5891      2.00000
     22      -1.5429      2.00000
     23      -1.5429      2.00000
     24      -1.4384      2.00000
     25       1.6550      2.00000
     26       1.7876      2.00000
     27       1.7876      2.00000
     28       2.0025      2.00000
     29       2.0347      2.00000
     30       2.0560      2.00000
     31       2.0560      2.00000
     32       2.1497      2.00000
     33      10.5437      0.00000
     34      10.8596      0.00000
     35      10.8596      0.00000
     36      11.0095      0.00000
     37      14.8703      0.00000
     38      14.8850      0.00000
     39      14.8852      0.00000
     40      14.9208      0.00000

 k-point    35 :       0.4444    0.4444    0.4444
  band No.  band energies     occupation 
      1     -69.6378      2.00000
      2     -69.6375      2.00000
      3     -69.6375      2.00000
      4     -69.6375      2.00000
      5     -36.4515      2.00000
      6     -36.4515      2.00000
      7     -36.4515      2.00000
      8     -36.4504      2.00000
      9     -36.3847      2.00000
     10     -36.3847      2.00000
     11     -36.3847      2.00000
     12     -36.3840      2.00000
     13     -36.3840      2.00000
     14     -36.3840      2.00000
     15     -36.3832      2.00000
     16     -36.3832      2.00000
     17     -13.1935      2.00000
     18     -13.1441      2.00000
     19     -13.1441      2.00000
     20     -13.1441      2.00000
     21      -1.7149      2.00000
     22      -1.7149      2.00000
     23      -1.7149      2.00000
     24      -1.6614      2.00000
     25       1.9875      2.00000
     26       1.9875      2.00000
     27       1.9875      2.00000
     28       2.0718      2.00000
     29       2.0718      2.00000
     30       2.0718      2.00000
     31       2.1117      2.00000
     32       2.1117      2.00000
     33      10.4346      0.00000
     34      10.5979      0.00000
     35      10.5979      0.00000
     36      10.5979      0.00000
     37      14.9765      0.00000
     38      14.9930      0.00000
     39      14.9932      0.00000
     40      14.9932      0.00000


--------------------------------------------------------------------------------------------------------


 soft charge-density along one line, spin component           1
         0         1         2         3         4         5         6         7         8         9
 total charge-density along one line
 
 pseudopotential strength for first ion, spin component:           1
-79.160  22.544   0.000   0.000   0.000  -0.000  -0.000  -0.000
 22.544 -25.527   0.000   0.000   0.000   0.000   0.000   0.000
  0.000   0.000 -51.680   0.000  -0.000   8.729  -0.000   0.000
  0.000   0.000   0.000 -51.680  -0.000  -0.000   8.729   0.000
  0.000   0.000  -0.000  -0.000 -51.680   0.000   0.000   8.729
 -0.000   0.000   8.729  -0.000   0.000   7.656   0.000  -0.000
 -0.000   0.000  -0.000   8.729   0.000   0.000   7.656  -0.000
 -0.000   0.000   0.000   0.000   8.729  -0.000  -0.000   7.656
  0.000  -0.000   0.000  -0.000   0.000  -0.000   0.000  -0.000
  0.000   0.000   0.000   0.000  -0.000  -0.000  -0.000   0.000
 -0.000  -0.000  -0.000   0.000  -0.000   0.000  -0.000   0.000
 -0.000  -0.000  -0.000   0.000   0.000   0.000  -0.000  -0.000
  0.000   0.000  -0.000   0.000   0.000   0.000  -0.000  -0.000
 total augmentation occupancy for first ion, spin component:           1
  2.000  -0.009   0.000   0.000   0.000   0.000   0.000   0.000   0.000   0.000   0.000   0.000   0.000
 -0.009   0.722   0.000   0.000   0.000   0.000   0.000   0.000   0.000   0.000   0.000  -0.000   0.000
  0.000   0.000   2.001   0.000   0.000  -0.004   0.000  -0.000  -0.000  -0.000   0.000  -0.000   0.000
  0.000   0.000   0.000   2.001  -0.000  -0.000  -0.004  -0.000   0.000   0.000  -0.000   0.000  -0.000
  0.000   0.000   0.000  -0.000   2.001  -0.000   0.000  -0.004   0.000   0.000  -0.000  -0.000   0.000
  0.000   0.000  -0.004   0.000  -0.000   0.037   0.000   0.000  -0.000   0.000   0.000  -0.000   0.000
  0.000   0.000   0.000  -0.004  -0.000   0.000   0.037   0.000  -0.000  -0.000  -0.000   0.000  -0.000
  0.000   0.000   0.000   0.000  -0.004   0.000   0.000   0.037  -0.000   0.000   0.000   0.000  -0.000
 -0.000   0.000  -0.000   0.000   0.000  -0.000  -0.000  -0.000   0.005   0.000  -0.000   0.000   0.000
 -0.000   0.000  -0.000   0.000   0.000   0.000  -0.000   0.000  -0.000   0.005  -0.000   0.000  -0.000
  0.000   0.000   0.000  -0.000  -0.000  -0.000  -0.000  -0.000   0.000  -0.000   0.022  -0.000   0.000
 -0.000  -0.000  -0.000   0.000  -0.000  -0.000   0.000   0.000  -0.000  -0.000  -0.000   0.005   0.000
  0.000   0.000  -0.000   0.000   0.000   0.000   0.000  -0.000   0.000  -0.000   0.000   0.000   0.022


------------------------ aborting loop because EDIFF is reached ----------------------------------------





 total charge

# of ion       s       p       d       tot
------------------------------------------
    1        2.070   6.007   0.038   8.115
    2        2.070   6.007   0.038   8.115
    3        2.070   6.007   0.038   8.115
    4        2.070   6.007   0.038   8.115
    5        1.538   3.548   0.000   5.086
    6        1.538   3.548   0.000   5.086
    7        1.538   3.548   0.000   5.086
    8        1.538   3.548   0.000   5.086
--------------------------------------------------
tot         14.430  38.221   0.153  52.804
 
    CHARGE:  cpu time    0.0231: real time    0.0235
    FORLOC:  cpu time    0.0002: real time    0.0002
    FORNL :  cpu time    0.0233: real time    0.0234
    STRESS:  cpu time    0.0567: real time    0.0569
    FORCOR:  cpu time    0.0043: real time    0.0043
    FORHAR:  cpu time    0.0010: real time    0.0010
    MIXING:  cpu time    0.0003: real time    0.0003
    OFIELD:  cpu time    0.0000: real time    0.0000

  FORCE on cell =-STRESS in cart. coord.  units (eV):
  Direction    XX          YY          ZZ          XY          YZ          ZX
  --------------------------------------------------------------------------------------
  Alpha Z   318.84494   318.84494   318.84494
  Ewald   -1703.35026 -1703.35026 -1703.35026     0.00000     0.00000     0.00000
  Hartree   782.00351   782.00351   782.00351    -0.00000    -0.00000    -0.00000
  E(xc)    -401.06446  -401.06446  -401.06446     0.00000     0.00000    -0.00000
  Local     256.73927   256.73927   256.73927     0.00000    -0.00000     0.00000
  n-local  -744.43053  -738.57204  -732.30380     0.61003     0.51308     0.36889
  augment   114.17362   114.17362   114.17362     0.00000    -0.00000    -0.00000
  Kinetic  1370.80976  1372.69187  1369.72117    -3.67834    -3.28362    -2.33351
  Fock        0.00000     0.00000     0.00000     0.00000     0.00000     0.00000
  -------------------------------------------------------------------------------------
  Total      -0.01458    -0.01458    -0.01458     0.00000    -0.00000     0.00000
  in kB      -0.30397    -0.30397    -0.30397     0.00000    -0.00000     0.00000
  external pressure =       -0.30 kB  Pullay stress =        0.00 kB


 VOLUME and BASIS-vectors are now :
 -----------------------------------------------------------------------------
  energy-cutoff  :      800.00
  volume of cell :       76.83
      direct lattice vectors                 reciprocal lattice vectors
     4.251193752  0.000000000 -0.000000000     0.235228046  0.000000000  0.000000000
    -0.000000000  4.251193752  0.000000000    -0.000000000  0.235228046 -0.000000000
    -0.000000000  0.000000000  4.251193752     0.000000000  0.000000000  0.235228046

  length of vectors
     4.251193752  4.251193752  4.251193752     0.235228046  0.235228046  0.235228046


 FORCES acting on ions
    electron-ion (+dipol)            ewald-force                    non-local-force                 convergence-correction
 -----------------------------------------------------------------------------------------------
   0.316E-13 0.282E-13 0.873E-13   -.135E-13 -.696E-14 -.108E-13   0.222E-22 -.575E-23 -.430E-22   0.130E-12 0.288E-14 0.140E-12
   -.423E-14 0.649E-13 0.596E-13   -.133E-13 -.266E-14 0.470E-15   0.396E-22 -.347E-22 0.294E-22   0.595E-13 0.253E-13 -.202E-12
   0.263E-13 -.130E-13 0.234E-12   0.332E-13 -.458E-14 0.289E-15   -.201E-23 0.129E-22 -.396E-22   -.252E-12 0.416E-13 -.142E-12
   0.295E-13 0.511E-11 -.565E-11   0.334E-13 -.285E-15 -.997E-14   0.117E-22 -.155E-22 0.902E-23   -.253E-12 -.338E-13 0.191E-12
   0.446E-13 0.411E-13 -.115E-11   -.583E-14 0.174E-14 0.673E-15   0.158E-22 -.202E-22 0.163E-22   -.613E-13 0.348E-13 0.848E-13
   0.503E-13 0.219E-11 0.879E-12   -.574E-14 0.523E-14 0.813E-14   -.293E-23 -.223E-25 -.938E-23   -.507E-13 0.223E-13 -.149E-12
   0.631E-13 0.411E-13 -.191E-14   -.158E-13 0.328E-14 0.812E-14   0.187E-22 -.165E-23 0.150E-23   0.140E-12 0.218E-13 -.147E-12
   0.593E-13 0.883E-13 0.569E-13   -.157E-13 0.678E-14 0.261E-14   -.182E-22 0.165E-22 0.206E-23   0.133E-12 0.319E-13 0.986E-13
 -----------------------------------------------------------------------------------------------
   0.300E-12 0.755E-11 -.549E-11   -.318E-14 0.255E-14 -.524E-15   0.849E-22 -.485E-22 -.338E-22   -.154E-12 0.147E-12 -.125E-12
 
 
 POSITION                                       TOTAL-FORCE (eV/Angst)
 -----------------------------------------------------------------------------------
      0.00000      0.00000      0.00000        -0.000000     -0.000000     -0.000000
     -0.00000      2.12560      2.12560        -0.000000     -0.000000     -0.000000
      2.12560      0.00000      2.12560         0.000000     -0.000000      0.000000
      2.12560      2.12560     -0.00000        -0.000000      0.000000      0.000000
      2.12560      0.00000     -0.00000         0.000000     -0.000000     -0.000000
      2.12560      2.12560      2.12560        -0.000000     -0.000000     -0.000000
     -0.00000     -0.00000      2.12560         0.000000     -0.000000     -0.000000
     -0.00000      2.12560     -0.00000        -0.000000     -0.000000      0.000000
 -----------------------------------------------------------------------------------
    total drift:                                0.000000      0.000000     -0.000000


--------------------------------------------------------------------------------------------------------



  FREE ENERGIE OF THE ION-ELECTRON SYSTEM (eV)
  ---------------------------------------------------
  free  energy   TOTEN  =       -47.53219403 eV

  energy  without entropy=      -47.53219403  energy(sigma->0) =      -47.53219403
 
 d Force = 0.0000000E+00[ 0.000E+00, 0.000E+00]  d Energy = 0.5056893E-02-0.506E-02
 d Force = 0.0000000E+00[ 0.000E+00, 0.000E+00]  d Ewald  = 0.1997167E+02-0.200E+02


--------------------------------------------------------------------------------------------------------


    POTLOK:  cpu time    0.0969: real time    0.0972


--------------------------------------------------------------------------------------------------------




--------------------------------------------------------------------------------------------------------


  
 reached required accuracy - stopping structural energy minimisation
     LOOP+:  cpu time    6.5664: real time    6.7257
    4ORBIT:  cpu time    0.0000: real time    0.0186



 total charge

# of ion       s       p       d       tot
------------------------------------------
    1        2.070   6.007   0.038   8.115
    2        2.070   6.007   0.038   8.115
    3        2.070   6.007   0.038   8.115
    4        2.070   6.007   0.038   8.115
    5        1.538   3.548   0.000   5.086
    6        1.538   3.548   0.000   5.086
    7        1.538   3.548   0.000   5.086
    8        1.538   3.548   0.000   5.086
--------------------------------------------------
tot         14.430  38.221   0.153  52.804
 

 total amount of memory used by VASP MPI-rank0    34221. kBytes
=======================================================================

   base      :      30000. kBytes
   nonl-proj :       1511. kBytes
   fftplans  :        547. kBytes
   grid      :        923. kBytes
   one-center:          8. kBytes
   wavefun   :       1232. kBytes
 
  
  
 General timing and accounting informations for this job:
 ========================================================
  
                  Total CPU time used (sec):       30.118
                            User time (sec):       29.411
                          System time (sec):        0.707
                         Elapsed time (sec):       33.464
  
                   Maximum memory used (kb):      326840.
                   Average memory used (kb):          N/A
  
                          Minor page faults:        59167
                          Major page faults:           62
                 Voluntary context switches:         3282
