 **********************************************************************
                          MRCC program system
 **********************************************************************
 
                              Written by
 Mihaly Kallay, Peter R. Nagy, David Mester, Zoltan Rolik, Gyula Samu,
   Jozsef Csontos, Jozsef Csoka, P. Bernat Szabo, Laszlo Gyevi-Nagy,
    Bence Hegely, Istvan Ladjanszki, Lorant Szegedy, Bence Ladoczki,
       Klara Petrov, Mate Farkas, Pal D. Mezei, and Adam Ganyecz
 
        Department of Physical Chemistry and Materials Science
            Budapest University of Technology and Economics
                  Budapest P.O.Box 91, H-1521 Hungary
 
                              www.mrcc.hu
 
                    Release date: February 22, 2020

 ************************ 2021-10-19 00:58:38 *************************
 Executing minp...

 Reading input from MINP...
 
 Input file:
 
calc=SCF
dft=PBE
scftype=rks
verbosity=3
mem=490GB
symm=off
unit=angs
scfiguess=sad
scfmaxit=1000

charge=-106
basis=special
def2-SVP
def2-SVP
def2-SVP
def2-SVP
def2-SVP
def2-SVP
def2-SVP
def2-SVP
def2-SVP
def2-SVP
def2-SVP
def2-SVP
def2-SVP
def2-SVP
def2-SVP
def2-SVP
def2-SVP
def2-SVP
def2-SVP
def2-SVP
def2-SVP
def2-SVP
def2-SVP
def2-SVP
def2-SVP
def2-SVP
def2-SVP
def2-SVP
def2-SVP
def2-SVP
def2-SVP
def2-SVP
def2-SVP
def2-SVP
def2-SVP
def2-SVP
def2-SVP
def2-SVP
def2-SVP
def2-SVP
def2-SVP
def2-SVP
def2-SVP
def2-SVP
def2-SVP
def2-SVP
def2-SVP
def2-SVP
def2-SVP
def2-SVP
def2-SVP
def2-SVP
def2-SVP
def2-SVP
def2-SVP
def2-SVP
def2-SVP
def2-SVP
def2-SVP
def2-SVP
def2-SVP
def2-SVP
def2-SVP
def2-SVP
def2-SVP
def2-SVP
def2-SVP
def2-SVP
def2-SVP
def2-SVP
def2-SVP
def2-SVP
def2-SVP
def2-SVP
def2-SVP
def2-SVP
def2-SVP
def2-SVP
def2-SVP
def2-SVP
def2-SVP
def2-SVP
def2-SVP
def2-SVP
def2-SVP
def2-SVP
def2-SVP
def2-SVP
def2-SVP
def2-SVP
def2-SVP
def2-SVP
def2-SVP
def2-SVP
def2-SVP
def2-SVP
def2-SVP
def2-SVP
def2-SVP
def2-SVP
def2-SVP
def2-SVP
def2-SVP
def2-SVP
def2-SVP
def2-SVP
def2-SVP
def2-SVP
def2-SVP
def2-SVP
def2-SVP
def2-SVP
def2-SVP
def2-SVP
def2-SVP
def2-SVP
def2-SVP
def2-SVP
def2-SVP
def2-SVP
def2-SVP
def2-SVP
def2-SVP
def2-SVP
def2-SVP
def2-SVP
def2-SVP
def2-SVP
def2-SVP
def2-SVP
def2-SVP
def2-SVP
def2-SVP
def2-SVP
def2-SVP
def2-SVP
def2-SVP
def2-SVP
def2-SVP
def2-SVP
def2-SVP
def2-SVP
def2-SVP
def2-SVP
def2-SVP
def2-SVP
def2-SVP
def2-SVP
def2-SVP
def2-SVP
def2-SVP
def2-SVP
def2-SVP
def2-SVP
def2-SVP
def2-SVP
def2-SVP
def2-SVP
def2-SVP
def2-SVP
def2-SVP
def2-SVP
def2-SVP
def2-SVP
def2-SVP
def2-SVP
def2-SVP
def2-SVP
def2-SVP
def2-SVP
def2-SVP
def2-SVP
def2-SVP
nothing
nothing
nothing
nothing
nothing
nothing
nothing
nothing
nothing
nothing
nothing
nothing
nothing
nothing
nothing
nothing
nothing
nothing
nothing
nothing
nothing
nothing
nothing
nothing
nothing
nothing
nothing
nothing
nothing
nothing
nothing
nothing
nothing
nothing
nothing
nothing
nothing
nothing
nothing
nothing
nothing
nothing
nothing
nothing
nothing
nothing
nothing
nothing
nothing
nothing
nothing
nothing
nothing
nothing
nothing
nothing
nothing
nothing
nothing
nothing
nothing
nothing
nothing
nothing
nothing
nothing
nothing
nothing
nothing
nothing
nothing
nothing
nothing
nothing
nothing
nothing
nothing
nothing
nothing
nothing
nothing
nothing
nothing
nothing
nothing
nothing
nothing
nothing
nothing
nothing
nothing
nothing
nothing
nothing
nothing
nothing
nothing
nothing
nothing
nothing
nothing
nothing
nothing
nothing
nothing
nothing
nothing
nothing
nothing
nothing
nothing
nothing
nothing
nothing
nothing
nothing
nothing
nothing
nothing
nothing
nothing
nothing
nothing
nothing
nothing
nothing
nothing
nothing
nothing
nothing
nothing
nothing
nothing
nothing
nothing
nothing
nothing
nothing
nothing
nothing
nothing
nothing
nothing
nothing
nothing
nothing
nothing
nothing
nothing
nothing
nothing
nothing
nothing
nothing
nothing
nothing
nothing
nothing
nothing
nothing
nothing
nothing
nothing
nothing
nothing
nothing
nothing
nothing
nothing
nothing
nothing
nothing
nothing
nothing
nothing
nothing
nothing
nothing
nothing
nothing
nothing
nothing
nothing
nothing
nothing
nothing
nothing
nothing
nothing
nothing
nothing
nothing
nothing
nothing
nothing
nothing
nothing
nothing
nothing
nothing
nothing
nothing
nothing
nothing
nothing
nothing
nothing
nothing
nothing
nothing
nothing
nothing
nothing
nothing
nothing
nothing
nothing
nothing
nothing
nothing
nothing
nothing
nothing
nothing
nothing
nothing
nothing
nothing
nothing
nothing
nothing
nothing
nothing
nothing
nothing
nothing
nothing
nothing
nothing
nothing
nothing
nothing
nothing
nothing
nothing
nothing
nothing
nothing
nothing
nothing
nothing
nothing
nothing
nothing
nothing
nothing
nothing
nothing
nothing
nothing
nothing
nothing
nothing
nothing
nothing
nothing
nothing
nothing
nothing
nothing
nothing
nothing
nothing
nothing
nothing
nothing
nothing
nothing
nothing
nothing
nothing
nothing
nothing
nothing
nothing
nothing
nothing
nothing
nothing
nothing
nothing
nothing
nothing
nothing
nothing
nothing
nothing
nothing
nothing
nothing
nothing
nothing
nothing
nothing
nothing
nothing
nothing
nothing
nothing
nothing
nothing
nothing
nothing
nothing
nothing
nothing
nothing
nothing
nothing
nothing
nothing
nothing
nothing
nothing
nothing
nothing
nothing
nothing
nothing
nothing
nothing
nothing
nothing
nothing
nothing
nothing
nothing
nothing
nothing
nothing
nothing
nothing
nothing
nothing
nothing
nothing
nothing
nothing
nothing
nothing

dfbasis_scf=special
def2-QZVPP-RI-JK
def2-QZVPP-RI-JK
def2-QZVPP-RI-JK
def2-QZVPP-RI-JK
def2-QZVPP-RI-JK
def2-QZVPP-RI-JK
def2-QZVPP-RI-JK
def2-QZVPP-RI-JK
def2-QZVPP-RI-JK
def2-QZVPP-RI-JK
def2-QZVPP-RI-JK
def2-QZVPP-RI-JK
def2-QZVPP-RI-JK
def2-QZVPP-RI-JK
def2-QZVPP-RI-JK
def2-QZVPP-RI-JK
def2-QZVPP-RI-JK
def2-QZVPP-RI-JK
def2-QZVPP-RI-JK
def2-QZVPP-RI-JK
def2-QZVPP-RI-JK
def2-QZVPP-RI-JK
def2-QZVPP-RI-JK
def2-QZVPP-RI-JK
def2-QZVPP-RI-JK
def2-QZVPP-RI-JK
def2-QZVPP-RI-JK
def2-QZVPP-RI-JK
def2-QZVPP-RI-JK
def2-QZVPP-RI-JK
def2-QZVPP-RI-JK
def2-QZVPP-RI-JK
def2-QZVPP-RI-JK
def2-QZVPP-RI-JK
def2-QZVPP-RI-JK
def2-QZVPP-RI-JK
def2-QZVPP-RI-JK
def2-QZVPP-RI-JK
def2-QZVPP-RI-JK
def2-QZVPP-RI-JK
def2-QZVPP-RI-JK
def2-QZVPP-RI-JK
def2-QZVPP-RI-JK
def2-QZVPP-RI-JK
def2-QZVPP-RI-JK
def2-QZVPP-RI-JK
def2-QZVPP-RI-JK
def2-QZVPP-RI-JK
def2-QZVPP-RI-JK
def2-QZVPP-RI-JK
def2-QZVPP-RI-JK
def2-QZVPP-RI-JK
def2-QZVPP-RI-JK
def2-QZVPP-RI-JK
def2-QZVPP-RI-JK
def2-QZVPP-RI-JK
def2-QZVPP-RI-JK
def2-QZVPP-RI-JK
def2-QZVPP-RI-JK
def2-QZVPP-RI-JK
def2-QZVPP-RI-JK
def2-QZVPP-RI-JK
def2-QZVPP-RI-JK
def2-QZVPP-RI-JK
def2-QZVPP-RI-JK
def2-QZVPP-RI-JK
def2-QZVPP-RI-JK
def2-QZVPP-RI-JK
def2-QZVPP-RI-JK
def2-QZVPP-RI-JK
def2-QZVPP-RI-JK
def2-QZVPP-RI-JK
def2-QZVPP-RI-JK
def2-QZVPP-RI-JK
def2-QZVPP-RI-JK
def2-QZVPP-RI-JK
def2-QZVPP-RI-JK
def2-QZVPP-RI-JK
def2-QZVPP-RI-JK
def2-QZVPP-RI-JK
def2-QZVPP-RI-JK
def2-QZVPP-RI-JK
def2-QZVPP-RI-JK
def2-QZVPP-RI-JK
def2-QZVPP-RI-JK
def2-QZVPP-RI-JK
def2-QZVPP-RI-JK
def2-QZVPP-RI-JK
def2-QZVPP-RI-JK
def2-QZVPP-RI-JK
def2-QZVPP-RI-JK
def2-QZVPP-RI-JK
def2-QZVPP-RI-JK
def2-QZVPP-RI-JK
def2-QZVPP-RI-JK
def2-QZVPP-RI-JK
def2-QZVPP-RI-JK
def2-QZVPP-RI-JK
def2-QZVPP-RI-JK
def2-QZVPP-RI-JK
def2-QZVPP-RI-JK
def2-QZVPP-RI-JK
def2-QZVPP-RI-JK
def2-QZVPP-RI-JK
def2-QZVPP-RI-JK
def2-QZVPP-RI-JK
def2-QZVPP-RI-JK
def2-QZVPP-RI-JK
def2-QZVPP-RI-JK
def2-QZVPP-RI-JK
def2-QZVPP-RI-JK
def2-QZVPP-RI-JK
def2-QZVPP-RI-JK
def2-QZVPP-RI-JK
def2-QZVPP-RI-JK
def2-QZVPP-RI-JK
def2-QZVPP-RI-JK
def2-QZVPP-RI-JK
def2-QZVPP-RI-JK
def2-QZVPP-RI-JK
def2-QZVPP-RI-JK
def2-QZVPP-RI-JK
def2-QZVPP-RI-JK
def2-QZVPP-RI-JK
def2-QZVPP-RI-JK
def2-QZVPP-RI-JK
def2-QZVPP-RI-JK
def2-QZVPP-RI-JK
def2-QZVPP-RI-JK
def2-QZVPP-RI-JK
def2-QZVPP-RI-JK
def2-QZVPP-RI-JK
def2-QZVPP-RI-JK
def2-QZVPP-RI-JK
def2-QZVPP-RI-JK
def2-QZVPP-RI-JK
def2-QZVPP-RI-JK
def2-QZVPP-RI-JK
def2-QZVPP-RI-JK
def2-QZVPP-RI-JK
def2-QZVPP-RI-JK
def2-QZVPP-RI-JK
def2-QZVPP-RI-JK
def2-QZVPP-RI-JK
def2-QZVPP-RI-JK
def2-QZVPP-RI-JK
def2-QZVPP-RI-JK
def2-QZVPP-RI-JK
def2-QZVPP-RI-JK
def2-QZVPP-RI-JK
def2-QZVPP-RI-JK
def2-QZVPP-RI-JK
def2-QZVPP-RI-JK
def2-QZVPP-RI-JK
def2-QZVPP-RI-JK
def2-QZVPP-RI-JK
def2-QZVPP-RI-JK
def2-QZVPP-RI-JK
def2-QZVPP-RI-JK
def2-QZVPP-RI-JK
def2-QZVPP-RI-JK
def2-QZVPP-RI-JK
def2-QZVPP-RI-JK
def2-QZVPP-RI-JK
def2-QZVPP-RI-JK
def2-QZVPP-RI-JK
def2-QZVPP-RI-JK
def2-QZVPP-RI-JK
def2-QZVPP-RI-JK
def2-QZVPP-RI-JK
def2-QZVPP-RI-JK
def2-QZVPP-RI-JK
def2-QZVPP-RI-JK
nothing
nothing
nothing
nothing
nothing
nothing
nothing
nothing
nothing
nothing
nothing
nothing
nothing
nothing
nothing
nothing
nothing
nothing
nothing
nothing
nothing
nothing
nothing
nothing
nothing
nothing
nothing
nothing
nothing
nothing
nothing
nothing
nothing
nothing
nothing
nothing
nothing
nothing
nothing
nothing
nothing
nothing
nothing
nothing
nothing
nothing
nothing
nothing
nothing
nothing
nothing
nothing
nothing
nothing
nothing
nothing
nothing
nothing
nothing
nothing
nothing
nothing
nothing
nothing
nothing
nothing
nothing
nothing
nothing
nothing
nothing
nothing
nothing
nothing
nothing
nothing
nothing
nothing
nothing
nothing
nothing
nothing
nothing
nothing
nothing
nothing
nothing
nothing
nothing
nothing
nothing
nothing
nothing
nothing
nothing
nothing
nothing
nothing
nothing
nothing
nothing
nothing
nothing
nothing
nothing
nothing
nothing
nothing
nothing
nothing
nothing
nothing
nothing
nothing
nothing
nothing
nothing
nothing
nothing
nothing
nothing
nothing
nothing
nothing
nothing
nothing
nothing
nothing
nothing
nothing
nothing
nothing
nothing
nothing
nothing
nothing
nothing
nothing
nothing
nothing
nothing
nothing
nothing
nothing
nothing
nothing
nothing
nothing
nothing
nothing
nothing
nothing
nothing
nothing
nothing
nothing
nothing
nothing
nothing
nothing
nothing
nothing
nothing
nothing
nothing
nothing
nothing
nothing
nothing
nothing
nothing
nothing
nothing
nothing
nothing
nothing
nothing
nothing
nothing
nothing
nothing
nothing
nothing
nothing
nothing
nothing
nothing
nothing
nothing
nothing
nothing
nothing
nothing
nothing
nothing
nothing
nothing
nothing
nothing
nothing
nothing
nothing
nothing
nothing
nothing
nothing
nothing
nothing
nothing
nothing
nothing
nothing
nothing
nothing
nothing
nothing
nothing
nothing
nothing
nothing
nothing
nothing
nothing
nothing
nothing
nothing
nothing
nothing
nothing
nothing
nothing
nothing
nothing
nothing
nothing
nothing
nothing
nothing
nothing
nothing
nothing
nothing
nothing
nothing
nothing
nothing
nothing
nothing
nothing
nothing
nothing
nothing
nothing
nothing
nothing
nothing
nothing
nothing
nothing
nothing
nothing
nothing
nothing
nothing
nothing
nothing
nothing
nothing
nothing
nothing
nothing
nothing
nothing
nothing
nothing
nothing
nothing
nothing
nothing
nothing
nothing
nothing
nothing
nothing
nothing
nothing
nothing
nothing
nothing
nothing
nothing
nothing
nothing
nothing
nothing
nothing
nothing
nothing
nothing
nothing
nothing
nothing
nothing
nothing
nothing
nothing
nothing
nothing
nothing
nothing
nothing
nothing
nothing
nothing
nothing
nothing
nothing
nothing
nothing
nothing
nothing
nothing
nothing
nothing
nothing
nothing
nothing
nothing
nothing
nothing
nothing
nothing
nothing
nothing
nothing
nothing
nothing
nothing
nothing
nothing
nothing
nothing
nothing
nothing
nothing
nothing
nothing
nothing
nothing
nothing

ecp=special
none
none
none
none
none
none
none
none
none
none
none
none
none
none
none
none
none
none
none
none
none
none
none
none
none
none
none
none
none
none
none
none
none
none
none
none
none
none
none
none
none
none
none
none
none
none
none
none
none
none
none
none
none
none
none
none
none
none
none
none
none
none
none
none
none
none
none
none
none
none
none
none
none
none
none
none
none
none
none
none
none
none
none
none
none
none
none
none
none
none
none
none
none
none
none
none
none
none
none
none
none
none
none
none
none
none
none
none
none
none
none
none
none
none
none
none
none
none
none
none
none
none
none
none
none
none
none
none
none
none
none
none
none
none
none
none
none
none
none
none
none
none
none
none
none
none
none
none
none
none
none
none
none
none
none
none
none
none
none
none
none
none
none
none
none
none
none
none
none
none
none
none
none
ECP-22
ECP-22
ECP-22
ECP-22
ECP-22
ECP-22
ECP-22
ECP-22
ECP-22
ECP-22
ECP-22
ECP-22
ECP-22
ECP-22
ECP-22
ECP-22
ECP-22
ECP-22
ECP-22
ECP-22
ECP-22
ECP-22
ECP-22
ECP-22
ECP-22
ECP-22
ECP-22
ECP-22
ECP-22
ECP-22
ECP-22
ECP-22
ECP-22
ECP-22
ECP-22
ECP-22
ECP-22
ECP-22
ECP-22
ECP-22
ECP-22
ECP-22
ECP-22
ECP-22
ECP-22
ECP-22
ECP-22
ECP-22
ECP-22
ECP-22
ECP-22
ECP-22
ECP-22
ECP-22
ECP-22
ECP-22
ECP-22
ECP-22
ECP-22
ECP-22
ECP-22
ECP-22
ECP-22
ECP-22
ECP-22
ECP-22
ECP-22
ECP-22
ECP-22
ECP-22
ECP-22
ECP-22
ECP-22
ECP-22
ECP-22
ECP-22
ECP-22
ECP-22
ECP-22
ECP-22
ECP-22
ECP-22
ECP-22
ECP-22
ECP-22
ECP-22
ECP-22
ECP-22
ECP-22
ECP-22
ECP-22
ECP-22
ECP-22
ECP-22
ECP-22
ECP-22
ECP-22
ECP-22
ECP-22
ECP-22
ECP-22
ECP-22
ECP-22
ECP-22
ECP-22
ECP-22
ECP-22
ECP-22
ECP-22
ECP-22
ECP-22
ECP-22
ECP-22
ECP-22
ECP-22
ECP-22
ECP-22
ECP-22
ECP-22
ECP-22
ECP-22
ECP-22
ECP-22
ECP-22
ECP-22
ECP-22
ECP-22
ECP-22
ECP-22
ECP-22
ECP-22
ECP-22
ECP-22
ECP-22
ECP-22
ECP-22
ECP-22
ECP-22
ECP-22
ECP-22
ECP-22
ECP-22
ECP-22
ECP-22
ECP-22
ECP-22
ECP-22
ECP-22
ECP-22
ECP-22
ECP-22
ECP-22
ECP-22
ECP-22
ECP-22
ECP-22
ECP-22
ECP-22
ECP-22
ECP-22
ECP-22
ECP-22
ECP-22
ECP-22
ECP-22
ECP-22
ECP-22
ECP-22
ECP-22
ECP-22
ECP-22
ECP-22
ECP-22
ECP-22
ECP-22
ECP-22
ECP-22
ECP-22
ECP-22
ECP-22
ECP-22
ECP-22
ECP-22
ECP-22
ECP-22
ECP-22
ECP-22
ECP-22
ECP-22
ECP-22
ECP-22
ECP-22
ECP-22
ECP-22
ECP-22
ECP-22
ECP-22
ECP-22
ECP-22
ECP-22
ECP-22
ECP-22
ECP-22
ECP-22
ECP-22
ECP-22
ECP-22
ECP-22
ECP-22
ECP-22
ECP-22
ECP-22
ECP-22
ECP-22
ECP-22
ECP-22
ECP-22
ECP-22
ECP-22
ECP-22
ECP-22
ECP-22
ECP-22
ECP-22
ECP-22
ECP-22
ECP-22
ECP-22
ECP-22
ECP-22
ECP-22
ECP-22
ECP-22
ECP-22
ECP-22
ECP-22
ECP-22
ECP-22
ECP-22
ECP-22
ECP-22
ECP-22
ECP-22
ECP-22
ECP-22
ECP-22
ECP-22
ECP-22
ECP-22
ECP-22
ECP-22
ECP-22
ECP-22
ECP-22
ECP-22
ECP-22
ECP-22
ECP-22
ECP-22
ECP-22
ECP-22
ECP-22
ECP-22
ECP-22
ECP-22
ECP-22
ECP-22
ECP-22
ECP-22
ECP-22
ECP-22
ECP-22
ECP-22
ECP-22
ECP-22
ECP-22
ECP-22
ECP-22
ECP-22
ECP-22
ECP-22
ECP-22
ECP-22
ECP-22
ECP-22
ECP-22
ECP-22
ECP-22
ECP-22
ECP-22
ECP-22
ECP-22
ECP-22
ECP-22
ECP-22
ECP-22
ECP-22
ECP-22
ECP-22
ECP-22
ECP-22
ECP-22
ECP-22
ECP-22
ECP-22
ECP-22
ECP-22
ECP-22
ECP-22
ECP-22
ECP-22
ECP-22
ECP-22
ECP-22
ECP-22
ECP-22
ECP-22
ECP-22
ECP-22
ECP-22
ECP-22
ECP-22
ECP-22
ECP-22
ECP-22
ECP-22
ECP-22
ECP-22
ECP-22
ECP-22
ECP-22
ECP-22
ECP-22
ECP-22
ECP-22
ECP-22
ECP-22
ECP-22
ECP-22
ECP-22
ECP-22
ECP-22
ECP-22
ECP-22
ECP-22
ECP-22
ECP-22
ECP-22
ECP-22
ECP-22

unit=angs
geom=xyz
523

O     0.00000000000    0.00000000000    0.00000000000
Ti    0.00000000000    1.48054676798   -1.27209143018
Ti    0.00000000000   -1.48054676798   -1.27209143018
Ti    0.00000000000    0.00000000000    1.98192821856
O    -0.00000000000    0.00000000000   -2.54418286035
O    -1.27209143018    1.48054676798    1.98192821856
O     1.27209143018    1.48054676798    1.98192821856
O     1.27209143018   -1.48054676798    1.98192821856
O    -1.27209143018   -1.48054676798    1.98192821856
O    -1.98192821856    1.48054676798   -1.27209143018
O     1.98192821856    1.48054676798   -1.27209143018
O     1.98192821856   -1.48054676798   -1.27209143018
O    -1.98192821856   -1.48054676798   -1.27209143018
O     0.00000000000    2.96109353596    0.00000000000
O     0.00000000000   -2.96109353596    0.00000000000
O    -3.25401964873    0.00000000000    0.70983678838
O     3.25401964873    0.00000000000    0.70983678838
Ti   -3.25401964873    0.00000000000   -1.27209143018
Ti    3.25401964873    0.00000000000   -1.27209143018
Ti    0.00000000000    2.96109353596    1.98192821856
Ti    0.00000000000   -2.96109353596    1.98192821856
O    -0.00000000000    2.96109353596   -2.54418286035
O    -0.00000000000   -2.96109353596   -2.54418286035
O    -0.00000000000    0.00000000000    3.96385643712
Ti   -3.25401964873    1.48054676798    1.98192821856
Ti    3.25401964873    1.48054676798    1.98192821856
Ti    3.25401964873   -1.48054676798    1.98192821856
Ti   -3.25401964873   -1.48054676798    1.98192821856
O    -3.25401964873    2.96109353596    0.70983678838
O     3.25401964873    2.96109353596    0.70983678838
O     3.25401964873   -2.96109353596    0.70983678838
O    -3.25401964873   -2.96109353596    0.70983678838
Ti    0.00000000000    0.00000000000   -4.52611107891
Ti   -3.25401964873    2.96109353596   -1.27209143018
Ti    3.25401964873    2.96109353596   -1.27209143018
Ti    3.25401964873   -2.96109353596   -1.27209143018
Ti   -3.25401964873   -2.96109353596   -1.27209143018
O    -3.25401964873    0.00000000000    3.25401964873
O     3.25401964873    0.00000000000    3.25401964873
O    -3.25401964873    0.00000000000   -3.25401964873
O     3.25401964873    0.00000000000   -3.25401964873
Ti    0.00000000000    4.44164030394   -1.27209143018
Ti    0.00000000000   -4.44164030394   -1.27209143018
O    -4.52611107891    1.48054676798   -1.27209143018
O     4.52611107891    1.48054676798   -1.27209143018
O     4.52611107891   -1.48054676798   -1.27209143018
O    -4.52611107891   -1.48054676798   -1.27209143018
O    -1.27209143018    1.48054676798   -4.52611107891
O     1.27209143018    1.48054676798   -4.52611107891
O     1.27209143018   -1.48054676798   -4.52611107891
O    -1.27209143018   -1.48054676798   -4.52611107891
O    -0.00000000000    2.96109353596    3.96385643712
O    -0.00000000000   -2.96109353596    3.96385643712
O    -1.27209143018    4.44164030394    1.98192821856
O     1.27209143018    4.44164030394    1.98192821856
O     1.27209143018   -4.44164030394    1.98192821856
O    -1.27209143018   -4.44164030394    1.98192821856
O    -1.98192821856    4.44164030394   -1.27209143018
O     1.98192821856    4.44164030394   -1.27209143018
O     1.98192821856   -4.44164030394   -1.27209143018
O    -1.98192821856   -4.44164030394   -1.27209143018
Ti    0.00000000000    2.96109353596   -4.52611107891
Ti    0.00000000000   -2.96109353596   -4.52611107891
Ti    0.00000000000    1.48054676798    5.23594786729
Ti    0.00000000000   -1.48054676798    5.23594786729
O    -3.25401964873    2.96109353596    3.25401964873
O     3.25401964873    2.96109353596    3.25401964873
O     3.25401964873   -2.96109353596    3.25401964873
O    -3.25401964873   -2.96109353596    3.25401964873
O    -3.25401964873    2.96109353596   -3.25401964873
O     3.25401964873    2.96109353596   -3.25401964873
O     3.25401964873   -2.96109353596   -3.25401964873
O    -3.25401964873   -2.96109353596   -3.25401964873
Ti   -3.25401964873    1.48054676798   -4.52611107891
Ti    3.25401964873    1.48054676798   -4.52611107891
Ti    3.25401964873   -1.48054676798   -4.52611107891
Ti   -3.25401964873   -1.48054676798   -4.52611107891
O    -1.98192821856    1.48054676798    5.23594786729
O     1.98192821856    1.48054676798    5.23594786729
O     1.98192821856   -1.48054676798    5.23594786729
O    -1.98192821856   -1.48054676798    5.23594786729
O    -5.23594786729    1.48054676798    1.98192821856
O     5.23594786729    1.48054676798    1.98192821856
O     5.23594786729   -1.48054676798    1.98192821856
O    -5.23594786729   -1.48054676798    1.98192821856
Ti   -3.25401964873    4.44164030394    1.98192821856
Ti    3.25401964873    4.44164030394    1.98192821856
Ti    3.25401964873   -4.44164030394    1.98192821856
Ti   -3.25401964873   -4.44164030394    1.98192821856
O     0.00000000000    5.92218707193    0.00000000000
O     0.00000000000   -5.92218707193    0.00000000000
Ti   -3.25401964873    0.00000000000    5.23594786729
Ti    3.25401964873    0.00000000000    5.23594786729
Ti    0.00000000000    5.92218707193    1.98192821856
Ti    0.00000000000   -5.92218707193    1.98192821856
O    -0.00000000000    5.92218707193   -2.54418286035
O    -0.00000000000   -5.92218707193   -2.54418286035
O    -4.52611107891    4.44164030394   -1.27209143018
O     4.52611107891    4.44164030394   -1.27209143018
O     4.52611107891   -4.44164030394   -1.27209143018
O    -4.52611107891   -4.44164030394   -1.27209143018
O    -1.27209143018    4.44164030394   -4.52611107891
O     1.27209143018    4.44164030394   -4.52611107891
O     1.27209143018   -4.44164030394   -4.52611107891
O    -1.27209143018   -4.44164030394   -4.52611107891
O     0.00000000000    0.00000000000    6.50803929747
O    -6.50803929747    0.00000000000    0.00000000000
O     6.50803929747    0.00000000000    0.00000000000
O     0.00000000000    0.00000000000   -6.50803929747
O    -3.25401964873    0.00000000000   -5.79820250908
O     3.25401964873    0.00000000000   -5.79820250908
O    -3.25401964873    5.92218707193    0.70983678838
O     3.25401964873    5.92218707193    0.70983678838
O     3.25401964873   -5.92218707193    0.70983678838
O    -3.25401964873   -5.92218707193    0.70983678838
Ti   -6.50803929747    1.48054676798   -1.27209143018
Ti    6.50803929747    1.48054676798   -1.27209143018
Ti    6.50803929747   -1.48054676798   -1.27209143018
Ti   -6.50803929747   -1.48054676798   -1.27209143018
Ti   -6.50803929747    0.00000000000    1.98192821856
Ti    6.50803929747    0.00000000000    1.98192821856
O    -6.50803929747    0.00000000000   -2.54418286035
O     6.50803929747    0.00000000000   -2.54418286035
O    -4.52611107891    1.48054676798    5.23594786729
O     4.52611107891    1.48054676798    5.23594786729
O     4.52611107891   -1.48054676798    5.23594786729
O    -4.52611107891   -1.48054676798    5.23594786729
O    -5.23594786729    1.48054676798   -4.52611107891
O     5.23594786729    1.48054676798   -4.52611107891
O     5.23594786729   -1.48054676798   -4.52611107891
O    -5.23594786729   -1.48054676798   -4.52611107891
O    -0.00000000000    5.92218707193    3.96385643712
O    -0.00000000000   -5.92218707193    3.96385643712
O    -5.23594786729    4.44164030394    1.98192821856
O     5.23594786729    4.44164030394    1.98192821856
O     5.23594786729   -4.44164030394    1.98192821856
O    -5.23594786729   -4.44164030394    1.98192821856
O     0.00000000000    2.96109353596    6.50803929747
O     0.00000000000   -2.96109353596    6.50803929747
O    -6.50803929747    2.96109353596    0.00000000000
O     6.50803929747    2.96109353596    0.00000000000
O     6.50803929747   -2.96109353596    0.00000000000
O    -6.50803929747   -2.96109353596    0.00000000000
O     0.00000000000    2.96109353596   -6.50803929747
O     0.00000000000   -2.96109353596   -6.50803929747
O    -3.25401964873    2.96109353596   -5.79820250908
O     3.25401964873    2.96109353596   -5.79820250908
O     3.25401964873   -2.96109353596   -5.79820250908
O    -3.25401964873   -2.96109353596   -5.79820250908
O    -3.25401964873    5.92218707193    3.25401964873
O     3.25401964873    5.92218707193    3.25401964873
O     3.25401964873   -5.92218707193    3.25401964873
O    -3.25401964873   -5.92218707193    3.25401964873
O    -6.50803929747    2.96109353596   -2.54418286035
O     6.50803929747    2.96109353596   -2.54418286035
O     6.50803929747   -2.96109353596   -2.54418286035
O    -6.50803929747   -2.96109353596   -2.54418286035
O    -6.50803929747    0.00000000000    3.96385643712
O     6.50803929747    0.00000000000    3.96385643712
O    -1.27209143018    7.40273383991    1.98192821856
O     1.27209143018    7.40273383991    1.98192821856
O     1.27209143018   -7.40273383991    1.98192821856
O    -1.27209143018   -7.40273383991    1.98192821856
O    -3.25401964873    0.00000000000    7.21787608585
O     3.25401964873    0.00000000000    7.21787608585
O    -7.78013072764    1.48054676798    1.98192821856
O     7.78013072764    1.48054676798    1.98192821856
O     7.78013072764   -1.48054676798    1.98192821856
O    -7.78013072764   -1.48054676798    1.98192821856
O    -8.48996751602    1.48054676798   -1.27209143018
O     8.48996751602    1.48054676798   -1.27209143018
O     8.48996751602   -1.48054676798   -1.27209143018
O    -8.48996751602   -1.48054676798   -1.27209143018
Ti   -3.25401964873    2.96109353596    5.23594786729
Ti    3.25401964873    2.96109353596    5.23594786729
Ti    3.25401964873   -2.96109353596    5.23594786729
Ti   -3.25401964873   -2.96109353596    5.23594786729
Ti    0.00000000000    4.44164030394    5.23594786729
Ti    0.00000000000   -4.44164030394    5.23594786729
Ti   -3.25401964873    5.92218707193   -1.27209143018
Ti    3.25401964873    5.92218707193   -1.27209143018
Ti    3.25401964873   -5.92218707193   -1.27209143018
Ti   -3.25401964873   -5.92218707193   -1.27209143018
Ti   -3.25401964873    4.44164030394   -4.52611107891
Ti    3.25401964873    4.44164030394   -4.52611107891
Ti    3.25401964873   -4.44164030394   -4.52611107891
Ti   -3.25401964873   -4.44164030394   -4.52611107891
Ti   -6.50803929747    2.96109353596    1.98192821856
Ti    6.50803929747    2.96109353596    1.98192821856
Ti    6.50803929747   -2.96109353596    1.98192821856
Ti   -6.50803929747   -2.96109353596    1.98192821856
Ti    0.00000000000    5.92218707193   -4.52611107891
Ti    0.00000000000   -5.92218707193   -4.52611107891
Ti    0.00000000000    7.40273383991   -1.27209143018
Ti    0.00000000000   -7.40273383991   -1.27209143018
Ti    0.00000000000    1.48054676798   -7.78013072764
Ti    0.00000000000   -1.48054676798   -7.78013072764
Ti   -6.50803929747    0.00000000000   -4.52611107891
Ti    6.50803929747    0.00000000000   -4.52611107891
Ti   -6.50803929747    4.44164030394   -1.27209143018
Ti    6.50803929747    4.44164030394   -1.27209143018
Ti    6.50803929747   -4.44164030394   -1.27209143018
Ti   -6.50803929747   -4.44164030394   -1.27209143018
Ti   -3.25401964873    7.40273383991    1.98192821856
Ti    3.25401964873    7.40273383991    1.98192821856
Ti    3.25401964873   -7.40273383991    1.98192821856
Ti   -3.25401964873   -7.40273383991    1.98192821856
Ti   -3.25401964873    0.00000000000   -7.78013072764
Ti    3.25401964873    0.00000000000   -7.78013072764
Ti   -6.50803929747    2.96109353596   -4.52611107891
Ti    6.50803929747    2.96109353596   -4.52611107891
Ti    6.50803929747   -2.96109353596   -4.52611107891
Ti   -6.50803929747   -2.96109353596   -4.52611107891
Ti   -6.50803929747    1.48054676798    5.23594786729
Ti    6.50803929747    1.48054676798    5.23594786729
Ti    6.50803929747   -1.48054676798    5.23594786729
Ti   -6.50803929747   -1.48054676798    5.23594786729
Ti    0.00000000000    0.00000000000    8.48996751602
Ti   -3.25401964873    5.92218707193    5.23594786729
Ti    3.25401964873    5.92218707193    5.23594786729
Ti    3.25401964873   -5.92218707193    5.23594786729
Ti   -3.25401964873   -5.92218707193    5.23594786729
Ti   -3.25401964873    2.96109353596   -7.78013072764
Ti    3.25401964873    2.96109353596   -7.78013072764
Ti    3.25401964873   -2.96109353596   -7.78013072764
Ti   -3.25401964873   -2.96109353596   -7.78013072764
Ti    0.00000000000    4.44164030394   -7.78013072764
Ti    0.00000000000   -4.44164030394   -7.78013072764
Ti    0.00000000000    2.96109353596    8.48996751602
Ti    0.00000000000   -2.96109353596    8.48996751602
Ti   -6.50803929747    5.92218707193    1.98192821856
Ti    6.50803929747    5.92218707193    1.98192821856
Ti    6.50803929747   -5.92218707193    1.98192821856
Ti   -6.50803929747   -5.92218707193    1.98192821856
Ti    0.00000000000    7.40273383991    5.23594786729
Ti    0.00000000000   -7.40273383991    5.23594786729
Ti    0.00000000000    8.88328060789    1.98192821856
Ti    0.00000000000   -8.88328060789    1.98192821856
Ti   -3.25401964873    1.48054676798    8.48996751602
Ti    3.25401964873    1.48054676798    8.48996751602
Ti    3.25401964873   -1.48054676798    8.48996751602
Ti   -3.25401964873   -1.48054676798    8.48996751602
Ti   -3.25401964873    7.40273383991   -4.52611107891
Ti    3.25401964873    7.40273383991   -4.52611107891
Ti    3.25401964873   -7.40273383991   -4.52611107891
Ti   -3.25401964873   -7.40273383991   -4.52611107891
Ti   -6.50803929747    4.44164030394    5.23594786729
Ti    6.50803929747    4.44164030394    5.23594786729
Ti    6.50803929747   -4.44164030394    5.23594786729
Ti   -6.50803929747   -4.44164030394    5.23594786729
Ti   -3.25401964873    8.88328060789   -1.27209143018
Ti    3.25401964873    8.88328060789   -1.27209143018
Ti    3.25401964873   -8.88328060789   -1.27209143018
Ti   -3.25401964873   -8.88328060789   -1.27209143018
Ti   -9.76205894620    0.00000000000   -1.27209143018
Ti    9.76205894620    0.00000000000   -1.27209143018
Ti   -6.50803929747    5.92218707193   -4.52611107891
Ti    6.50803929747    5.92218707193   -4.52611107891
Ti    6.50803929747   -5.92218707193   -4.52611107891
Ti   -6.50803929747   -5.92218707193   -4.52611107891
Ti   -6.50803929747    7.40273383991   -1.27209143018
Ti    6.50803929747    7.40273383991   -1.27209143018
Ti    6.50803929747   -7.40273383991   -1.27209143018
Ti   -6.50803929747   -7.40273383991   -1.27209143018
Ti    0.00000000000    8.88328060789   -4.52611107891
Ti    0.00000000000   -8.88328060789   -4.52611107891
Ti   -9.76205894620    1.48054676798    1.98192821856
Ti    9.76205894620    1.48054676798    1.98192821856
Ti    9.76205894620   -1.48054676798    1.98192821856
Ti   -9.76205894620   -1.48054676798    1.98192821856
Ti   -3.25401964873    4.44164030394    8.48996751602
Ti    3.25401964873    4.44164030394    8.48996751602
Ti    3.25401964873   -4.44164030394    8.48996751602
Ti   -3.25401964873   -4.44164030394    8.48996751602
Ti   -6.50803929747    1.48054676798   -7.78013072764
Ti    6.50803929747    1.48054676798   -7.78013072764
Ti    6.50803929747   -1.48054676798   -7.78013072764
Ti   -6.50803929747   -1.48054676798   -7.78013072764
Ti   -9.76205894620    2.96109353596   -1.27209143018
Ti    9.76205894620    2.96109353596   -1.27209143018
Ti    9.76205894620   -2.96109353596   -1.27209143018
Ti   -9.76205894620   -2.96109353596   -1.27209143018
Ti   -3.25401964873    5.92218707193   -7.78013072764
Ti    3.25401964873    5.92218707193   -7.78013072764
Ti    3.25401964873   -5.92218707193   -7.78013072764
Ti   -3.25401964873   -5.92218707193   -7.78013072764
Ti    0.00000000000    5.92218707193    8.48996751602
Ti    0.00000000000   -5.92218707193    8.48996751602
Ti    0.00000000000   10.36382737587   -1.27209143018
Ti    0.00000000000  -10.36382737587   -1.27209143018
Ti   -6.50803929747    0.00000000000    8.48996751602
Ti    6.50803929747    0.00000000000    8.48996751602
Ti    0.00000000000    7.40273383991   -7.78013072764
Ti    0.00000000000   -7.40273383991   -7.78013072764
Ti   -3.25401964873    8.88328060789    5.23594786729
Ti    3.25401964873    8.88328060789    5.23594786729
Ti    3.25401964873   -8.88328060789    5.23594786729
Ti   -3.25401964873   -8.88328060789    5.23594786729
Ti   -9.76205894620    1.48054676798   -4.52611107891
Ti    9.76205894620    1.48054676798   -4.52611107891
Ti    9.76205894620   -1.48054676798   -4.52611107891
Ti   -9.76205894620   -1.48054676798   -4.52611107891
Ti   -9.76205894620    4.44164030394    1.98192821856
Ti    9.76205894620    4.44164030394    1.98192821856
Ti    9.76205894620   -4.44164030394    1.98192821856
Ti   -9.76205894620   -4.44164030394    1.98192821856
Ti    0.00000000000    0.00000000000  -11.03415037637
Ti   -3.25401964873   10.36382737587    1.98192821856
Ti    3.25401964873   10.36382737587    1.98192821856
Ti    3.25401964873  -10.36382737587    1.98192821856
Ti   -3.25401964873  -10.36382737587    1.98192821856
Ti   -6.50803929747    4.44164030394   -7.78013072764
Ti    6.50803929747    4.44164030394   -7.78013072764
Ti    6.50803929747   -4.44164030394   -7.78013072764
Ti   -6.50803929747   -4.44164030394   -7.78013072764
Ti   -9.76205894620    0.00000000000    5.23594786729
Ti    9.76205894620    0.00000000000    5.23594786729
Ti   -6.50803929747    2.96109353596    8.48996751602
Ti    6.50803929747    2.96109353596    8.48996751602
Ti    6.50803929747   -2.96109353596    8.48996751602
Ti   -6.50803929747   -2.96109353596    8.48996751602
Ti   -6.50803929747    7.40273383991    5.23594786729
Ti    6.50803929747    7.40273383991    5.23594786729
Ti    6.50803929747   -7.40273383991    5.23594786729
Ti   -6.50803929747   -7.40273383991    5.23594786729
Ti   -6.50803929747    8.88328060789    1.98192821856
Ti    6.50803929747    8.88328060789    1.98192821856
Ti    6.50803929747   -8.88328060789    1.98192821856
Ti   -6.50803929747   -8.88328060789    1.98192821856
Ti    0.00000000000    2.96109353596  -11.03415037637
Ti    0.00000000000   -2.96109353596  -11.03415037637
Ti   -9.76205894620    2.96109353596    5.23594786729
Ti    9.76205894620    2.96109353596    5.23594786729
Ti    9.76205894620   -2.96109353596    5.23594786729
Ti   -9.76205894620   -2.96109353596    5.23594786729
Ti   -9.76205894620    5.92218707193   -1.27209143018
Ti    9.76205894620    5.92218707193   -1.27209143018
Ti    9.76205894620   -5.92218707193   -1.27209143018
Ti   -9.76205894620   -5.92218707193   -1.27209143018
Ti   -3.25401964873    1.48054676798  -11.03415037637
Ti    3.25401964873    1.48054676798  -11.03415037637
Ti    3.25401964873   -1.48054676798  -11.03415037637
Ti   -3.25401964873   -1.48054676798  -11.03415037637
Ti    0.00000000000   10.36382737587    5.23594786729
Ti    0.00000000000  -10.36382737587    5.23594786729
Ti   -9.76205894620    4.44164030394   -4.52611107891
Ti    9.76205894620    4.44164030394   -4.52611107891
Ti    9.76205894620   -4.44164030394   -4.52611107891
Ti   -9.76205894620   -4.44164030394   -4.52611107891
Ti   -3.25401964873    7.40273383991    8.48996751602
Ti    3.25401964873    7.40273383991    8.48996751602
Ti    3.25401964873   -7.40273383991    8.48996751602
Ti   -3.25401964873   -7.40273383991    8.48996751602
Ti   -3.25401964873   10.36382737587   -4.52611107891
Ti    3.25401964873   10.36382737587   -4.52611107891
Ti    3.25401964873  -10.36382737587   -4.52611107891
Ti   -3.25401964873  -10.36382737587   -4.52611107891
Ti    0.00000000000    1.48054676798   11.74398716476
Ti    0.00000000000   -1.48054676798   11.74398716476
Ti   -6.50803929747    8.88328060789   -4.52611107891
Ti    6.50803929747    8.88328060789   -4.52611107891
Ti    6.50803929747   -8.88328060789   -4.52611107891
Ti   -6.50803929747   -8.88328060789   -4.52611107891
Ti    0.00000000000   11.84437414385    1.98192821856
Ti    0.00000000000  -11.84437414385    1.98192821856
Ti   -3.25401964873    0.00000000000   11.74398716476
Ti    3.25401964873    0.00000000000   11.74398716476
Ti   -6.50803929747    5.92218707193    8.48996751602
Ti    6.50803929747    5.92218707193    8.48996751602
Ti    6.50803929747   -5.92218707193    8.48996751602
Ti   -6.50803929747   -5.92218707193    8.48996751602
Ti   -3.25401964873    8.88328060789   -7.78013072764
Ti    3.25401964873    8.88328060789   -7.78013072764
Ti    3.25401964873   -8.88328060789   -7.78013072764
Ti   -3.25401964873   -8.88328060789   -7.78013072764
Ti    0.00000000000    8.88328060789    8.48996751602
Ti    0.00000000000   -8.88328060789    8.48996751602
Ti   -6.50803929747   10.36382737587   -1.27209143018
Ti    6.50803929747   10.36382737587   -1.27209143018
Ti    6.50803929747  -10.36382737587   -1.27209143018
Ti   -6.50803929747  -10.36382737587   -1.27209143018
Ti   -3.25401964873    4.44164030394  -11.03415037637
Ti    3.25401964873    4.44164030394  -11.03415037637
Ti    3.25401964873   -4.44164030394  -11.03415037637
Ti   -3.25401964873   -4.44164030394  -11.03415037637
Ti   -3.25401964873   11.84437414385   -1.27209143018
Ti    3.25401964873   11.84437414385   -1.27209143018
Ti    3.25401964873  -11.84437414385   -1.27209143018
Ti   -3.25401964873  -11.84437414385   -1.27209143018
Ti   -9.76205894620    7.40273383991    1.98192821856
Ti    9.76205894620    7.40273383991    1.98192821856
Ti    9.76205894620   -7.40273383991    1.98192821856
Ti   -9.76205894620   -7.40273383991    1.98192821856
Ti   -9.76205894620    0.00000000000   -7.78013072764
Ti    9.76205894620    0.00000000000   -7.78013072764
Ti    0.00000000000    5.92218707193  -11.03415037637
Ti    0.00000000000   -5.92218707193  -11.03415037637
Ti   -3.25401964873    2.96109353596   11.74398716476
Ti    3.25401964873    2.96109353596   11.74398716476
Ti    3.25401964873   -2.96109353596   11.74398716476
Ti   -3.25401964873   -2.96109353596   11.74398716476
Ti    0.00000000000    4.44164030394   11.74398716476
Ti    0.00000000000   -4.44164030394   11.74398716476
Ti   -6.50803929747    7.40273383991   -7.78013072764
Ti    6.50803929747    7.40273383991   -7.78013072764
Ti    6.50803929747   -7.40273383991   -7.78013072764
Ti   -6.50803929747   -7.40273383991   -7.78013072764
Ti   -9.76205894620    5.92218707193    5.23594786729
Ti    9.76205894620    5.92218707193    5.23594786729
Ti    9.76205894620   -5.92218707193    5.23594786729
Ti   -9.76205894620   -5.92218707193    5.23594786729
Ti    0.00000000000   11.84437414385   -4.52611107891
Ti    0.00000000000  -11.84437414385   -4.52611107891
Ti   -6.50803929747    0.00000000000  -11.03415037637
Ti    6.50803929747    0.00000000000  -11.03415037637
Ti   -9.76205894620    2.96109353596   -7.78013072764
Ti    9.76205894620    2.96109353596   -7.78013072764
Ti    9.76205894620   -2.96109353596   -7.78013072764
Ti   -9.76205894620   -2.96109353596   -7.78013072764
Ti    0.00000000000   10.36382737587   -7.78013072764
Ti    0.00000000000  -10.36382737587   -7.78013072764
Ti   -9.76205894620    1.48054676798    8.48996751602
Ti    9.76205894620    1.48054676798    8.48996751602
Ti    9.76205894620   -1.48054676798    8.48996751602
Ti   -9.76205894620   -1.48054676798    8.48996751602
Ti   -9.76205894620    7.40273383991   -4.52611107891
Ti    9.76205894620    7.40273383991   -4.52611107891
Ti    9.76205894620   -7.40273383991   -4.52611107891
Ti   -9.76205894620   -7.40273383991   -4.52611107891
Ti   -6.50803929747    2.96109353596  -11.03415037637
Ti    6.50803929747    2.96109353596  -11.03415037637
Ti    6.50803929747   -2.96109353596  -11.03415037637
Ti   -6.50803929747   -2.96109353596  -11.03415037637
Ti  -13.01607859493    1.48054676798   -1.27209143018
Ti   13.01607859493    1.48054676798   -1.27209143018
Ti   13.01607859493   -1.48054676798   -1.27209143018
Ti  -13.01607859493   -1.48054676798   -1.27209143018
Ti  -13.01607859493    0.00000000000    1.98192821856
Ti   13.01607859493    0.00000000000    1.98192821856
Ti   -9.76205894620    8.88328060789   -1.27209143018
Ti    9.76205894620    8.88328060789   -1.27209143018
Ti    9.76205894620   -8.88328060789   -1.27209143018
Ti   -9.76205894620   -8.88328060789   -1.27209143018
Ti   -6.50803929747   10.36382737587    5.23594786729
Ti    6.50803929747   10.36382737587    5.23594786729
Ti    6.50803929747  -10.36382737587    5.23594786729
Ti   -6.50803929747  -10.36382737587    5.23594786729
Ti   -3.25401964873   11.84437414385    5.23594786729
Ti    3.25401964873   11.84437414385    5.23594786729
Ti    3.25401964873  -11.84437414385    5.23594786729
Ti   -3.25401964873  -11.84437414385    5.23594786729
Ti    0.00000000000   13.32492091183   -1.27209143018
Ti    0.00000000000  -13.32492091183   -1.27209143018
Ti  -13.01607859493    2.96109353596    1.98192821856
Ti   13.01607859493    2.96109353596    1.98192821856
Ti   13.01607859493   -2.96109353596    1.98192821856
Ti  -13.01607859493   -2.96109353596    1.98192821856
Ti   -6.50803929747    1.48054676798   11.74398716476
Ti    6.50803929747    1.48054676798   11.74398716476
Ti    6.50803929747   -1.48054676798   11.74398716476
Ti   -6.50803929747   -1.48054676798   11.74398716476
Ti   -3.25401964873    5.92218707193   11.74398716476
Ti    3.25401964873    5.92218707193   11.74398716476
Ti    3.25401964873   -5.92218707193   11.74398716476
Ti   -3.25401964873   -5.92218707193   11.74398716476
Ti   -6.50803929747   11.84437414385    1.98192821856
Ti    6.50803929747   11.84437414385    1.98192821856
Ti    6.50803929747  -11.84437414385    1.98192821856
Ti   -6.50803929747  -11.84437414385    1.98192821856
Ti   -9.76205894620    4.44164030394    8.48996751602
Ti    9.76205894620    4.44164030394    8.48996751602
Ti    9.76205894620   -4.44164030394    8.48996751602
Ti   -9.76205894620   -4.44164030394    8.48996751602
Ti   -3.25401964873    7.40273383991  -11.03415037637
Ti    3.25401964873    7.40273383991  -11.03415037637
Ti    3.25401964873   -7.40273383991  -11.03415037637
Ti   -3.25401964873   -7.40273383991  -11.03415037637
Ti  -13.01607859493    0.00000000000   -4.52611107891
Ti   13.01607859493    0.00000000000   -4.52611107891
Ti   -3.25401964873   10.36382737587    8.48996751602
Ti    3.25401964873   10.36382737587    8.48996751602
Ti    3.25401964873  -10.36382737587    8.48996751602
Ti   -3.25401964873  -10.36382737587    8.48996751602
Ti  -13.01607859493    4.44164030394   -1.27209143018
Ti   13.01607859493    4.44164030394   -1.27209143018
Ti   13.01607859493   -4.44164030394   -1.27209143018
Ti  -13.01607859493   -4.44164030394   -1.27209143018
Ti   -9.76205894620    5.92218707193   -7.78013072764
Ti    9.76205894620    5.92218707193   -7.78013072764
Ti    9.76205894620   -5.92218707193   -7.78013072764
Ti   -9.76205894620   -5.92218707193   -7.78013072764
Ti   -3.25401964873   13.32492091183    1.98192821856
Ti    3.25401964873   13.32492091183    1.98192821856
Ti    3.25401964873  -13.32492091183    1.98192821856
Ti   -3.25401964873  -13.32492091183    1.98192821856
Ti    0.00000000000    7.40273383991   11.74398716476
Ti    0.00000000000   -7.40273383991   11.74398716476
Ti   -6.50803929747    8.88328060789    8.48996751602
Ti    6.50803929747    8.88328060789    8.48996751602
Ti    6.50803929747   -8.88328060789    8.48996751602
Ti   -6.50803929747   -8.88328060789    8.48996751602
Ti  -13.01607859493    2.96109353596   -4.52611107891
Ti   13.01607859493    2.96109353596   -4.52611107891
Ti   13.01607859493   -2.96109353596   -4.52611107891
Ti  -13.01607859493   -2.96109353596   -4.52611107891
Ti  -13.01607859493    1.48054676798    5.23594786729
Ti   13.01607859493    1.48054676798    5.23594786729
Ti   13.01607859493   -1.48054676798    5.23594786729
Ti  -13.01607859493   -1.48054676798    5.23594786729
Ti   -6.50803929747    5.92218707193  -11.03415037637
Ti    6.50803929747    5.92218707193  -11.03415037637
Ti    6.50803929747   -5.92218707193  -11.03415037637
Ti   -6.50803929747   -5.92218707193  -11.03415037637
Ti    0.00000000000   13.32492091183    5.23594786729
Ti    0.00000000000  -13.32492091183    5.23594786729
Ti  -13.01607859493    5.92218707193    1.98192821856
Ti   13.01607859493    5.92218707193    1.98192821856
Ti   13.01607859493   -5.92218707193    1.98192821856
Ti  -13.01607859493   -5.92218707193    1.98192821856
Ti  -13.01607859493    4.44164030394    5.23594786729
Ti   13.01607859493    4.44164030394    5.23594786729
Ti   13.01607859493   -4.44164030394    5.23594786729
Ti  -13.01607859493   -4.44164030394    5.23594786729

qmmm=Amber
pointcharges
10665
     -3.25401964873    2.96109353596    5.23594786729    4.00000000000
      3.25401964873    2.96109353596    5.23594786729    4.00000000000
      3.25401964873   -2.96109353596    5.23594786729    4.00000000000
     -3.25401964873   -2.96109353596    5.23594786729    4.00000000000
      0.00000000000    4.44164030394    5.23594786729    4.00000000000
      0.00000000000   -4.44164030394    5.23594786729    4.00000000000
     -3.25401964873    5.92218707193   -1.27209143018    4.00000000000
      3.25401964873    5.92218707193   -1.27209143018    4.00000000000
      3.25401964873   -5.92218707193   -1.27209143018    4.00000000000
     -3.25401964873   -5.92218707193   -1.27209143018    4.00000000000
     -3.25401964873    4.44164030394   -4.52611107891    4.00000000000
      3.25401964873    4.44164030394   -4.52611107891    4.00000000000
      3.25401964873   -4.44164030394   -4.52611107891    4.00000000000
     -3.25401964873   -4.44164030394   -4.52611107891    4.00000000000
     -1.98192821856    4.44164030394    5.23594786729   -2.00000000000
      1.98192821856    4.44164030394    5.23594786729   -2.00000000000
      1.98192821856   -4.44164030394    5.23594786729   -2.00000000000
     -1.98192821856   -4.44164030394    5.23594786729   -2.00000000000
     -6.50803929747    2.96109353596    1.98192821856    4.00000000000
      6.50803929747    2.96109353596    1.98192821856    4.00000000000
      6.50803929747   -2.96109353596    1.98192821856    4.00000000000
     -6.50803929747   -2.96109353596    1.98192821856    4.00000000000
      0.00000000000    5.92218707193   -4.52611107891    4.00000000000
      0.00000000000   -5.92218707193   -4.52611107891    4.00000000000
     -3.25401964873    5.92218707193   -3.25401964873   -2.00000000000
      3.25401964873    5.92218707193   -3.25401964873   -2.00000000000
      3.25401964873   -5.92218707193   -3.25401964873   -2.00000000000
     -3.25401964873   -5.92218707193   -3.25401964873   -2.00000000000
      0.00000000000    7.40273383991   -1.27209143018    4.00000000000
      0.00000000000   -7.40273383991   -1.27209143018    4.00000000000
     -1.98192821856    7.40273383991   -1.27209143018   -2.00000000000
      1.98192821856    7.40273383991   -1.27209143018   -2.00000000000
      1.98192821856   -7.40273383991   -1.27209143018   -2.00000000000
     -1.98192821856   -7.40273383991   -1.27209143018   -2.00000000000
      0.00000000000    1.48054676798   -7.78013072764    4.00000000000
      0.00000000000   -1.48054676798   -7.78013072764    4.00000000000
     -6.50803929747    0.00000000000   -4.52611107891    4.00000000000
      6.50803929747    0.00000000000   -4.52611107891    4.00000000000
     -6.50803929747    4.44164030394   -1.27209143018    4.00000000000
      6.50803929747    4.44164030394   -1.27209143018    4.00000000000
      6.50803929747   -4.44164030394   -1.27209143018    4.00000000000
     -6.50803929747   -4.44164030394   -1.27209143018    4.00000000000
     -1.98192821856    1.48054676798   -7.78013072764   -2.00000000000
      1.98192821856    1.48054676798   -7.78013072764   -2.00000000000
      1.98192821856   -1.48054676798   -7.78013072764   -2.00000000000
     -1.98192821856   -1.48054676798   -7.78013072764   -2.00000000000
     -6.50803929747    2.96109353596    3.96385643712   -2.00000000000
      6.50803929747    2.96109353596    3.96385643712   -2.00000000000
      6.50803929747   -2.96109353596    3.96385643712   -2.00000000000
     -6.50803929747   -2.96109353596    3.96385643712   -2.00000000000
     -4.52611107891    4.44164030394    5.23594786729   -2.00000000000
      4.52611107891    4.44164030394    5.23594786729   -2.00000000000
      4.52611107891   -4.44164030394    5.23594786729   -2.00000000000
     -4.52611107891   -4.44164030394    5.23594786729   -2.00000000000
     -5.23594786729    4.44164030394   -4.52611107891   -2.00000000000
      5.23594786729    4.44164030394   -4.52611107891   -2.00000000000
      5.23594786729   -4.44164030394   -4.52611107891   -2.00000000000
     -5.23594786729   -4.44164030394   -4.52611107891   -2.00000000000
     -3.25401964873    7.40273383991    1.98192821856    4.00000000000
      3.25401964873    7.40273383991    1.98192821856    4.00000000000
      3.25401964873   -7.40273383991    1.98192821856    4.00000000000
     -3.25401964873   -7.40273383991    1.98192821856    4.00000000000
     -3.25401964873    0.00000000000   -7.78013072764    4.00000000000
      3.25401964873    0.00000000000   -7.78013072764    4.00000000000
     -3.25401964873    2.96109353596    7.21787608585   -2.00000000000
      3.25401964873    2.96109353596    7.21787608585   -2.00000000000
      3.25401964873   -2.96109353596    7.21787608585   -2.00000000000
     -3.25401964873   -2.96109353596    7.21787608585   -2.00000000000
     -6.50803929747    2.96109353596   -4.52611107891    4.00000000000
      6.50803929747    2.96109353596   -4.52611107891    4.00000000000
      6.50803929747   -2.96109353596   -4.52611107891    4.00000000000
     -6.50803929747   -2.96109353596   -4.52611107891    4.00000000000
     -6.50803929747    1.48054676798    5.23594786729    4.00000000000
      6.50803929747    1.48054676798    5.23594786729    4.00000000000
      6.50803929747   -1.48054676798    5.23594786729    4.00000000000
     -6.50803929747   -1.48054676798    5.23594786729    4.00000000000
      0.00000000000    0.00000000000    8.48996751602    4.00000000000
     -3.25401964873    5.92218707193    5.23594786729    4.00000000000
      3.25401964873    5.92218707193    5.23594786729    4.00000000000
      3.25401964873   -5.92218707193    5.23594786729    4.00000000000
     -3.25401964873   -5.92218707193    5.23594786729    4.00000000000
     -1.27209143018    1.48054676798    8.48996751602   -2.00000000000
      1.27209143018    1.48054676798    8.48996751602   -2.00000000000
      1.27209143018   -1.48054676798    8.48996751602   -2.00000000000
     -1.27209143018   -1.48054676798    8.48996751602   -2.00000000000
     -4.52611107891    7.40273383991   -1.27209143018   -2.00000000000
      4.52611107891    7.40273383991   -1.27209143018   -2.00000000000
      4.52611107891   -7.40273383991   -1.27209143018   -2.00000000000
     -4.52611107891   -7.40273383991   -1.27209143018   -2.00000000000
     -1.27209143018    7.40273383991   -4.52611107891   -2.00000000000
      1.27209143018    7.40273383991   -4.52611107891   -2.00000000000
      1.27209143018   -7.40273383991   -4.52611107891   -2.00000000000
     -1.27209143018   -7.40273383991   -4.52611107891   -2.00000000000
      0.00000000000    5.92218707193    6.50803929747   -2.00000000000
      0.00000000000   -5.92218707193    6.50803929747   -2.00000000000
     -6.50803929747    5.92218707193    0.00000000000   -2.00000000000
      6.50803929747    5.92218707193    0.00000000000   -2.00000000000
      6.50803929747   -5.92218707193    0.00000000000   -2.00000000000
     -6.50803929747   -5.92218707193    0.00000000000   -2.00000000000
      0.00000000000    5.92218707193   -6.50803929747   -2.00000000000
      0.00000000000   -5.92218707193   -6.50803929747   -2.00000000000
      0.00000000000    8.88328060789    0.00000000000   -2.00000000000
      0.00000000000   -8.88328060789    0.00000000000   -2.00000000000
     -3.25401964873    5.92218707193   -5.79820250908   -2.00000000000
      3.25401964873    5.92218707193   -5.79820250908   -2.00000000000
      3.25401964873   -5.92218707193   -5.79820250908   -2.00000000000
     -3.25401964873   -5.92218707193   -5.79820250908   -2.00000000000
     -3.25401964873    2.96109353596   -7.78013072764    4.00000000000
      3.25401964873    2.96109353596   -7.78013072764    4.00000000000
      3.25401964873   -2.96109353596   -7.78013072764    4.00000000000
     -3.25401964873   -2.96109353596   -7.78013072764    4.00000000000
      0.00000000000    4.44164030394   -7.78013072764    4.00000000000
      0.00000000000   -4.44164030394   -7.78013072764    4.00000000000
      0.00000000000    2.96109353596    8.48996751602    4.00000000000
      0.00000000000   -2.96109353596    8.48996751602    4.00000000000
     -6.50803929747    5.92218707193    1.98192821856    4.00000000000
      6.50803929747    5.92218707193    1.98192821856    4.00000000000
      6.50803929747   -5.92218707193    1.98192821856    4.00000000000
     -6.50803929747   -5.92218707193    1.98192821856    4.00000000000
     -0.00000000000    0.00000000000   -9.05222215782   -2.00000000000
      0.00000000000    7.40273383991    5.23594786729    4.00000000000
      0.00000000000   -7.40273383991    5.23594786729    4.00000000000
      0.00000000000    8.88328060789    1.98192821856    4.00000000000
      0.00000000000   -8.88328060789    1.98192821856    4.00000000000
     -7.78013072764    1.48054676798   -4.52611107891   -2.00000000000
      7.78013072764    1.48054676798   -4.52611107891   -2.00000000000
      7.78013072764   -1.48054676798   -4.52611107891   -2.00000000000
     -7.78013072764   -1.48054676798   -4.52611107891   -2.00000000000
     -4.52611107891    1.48054676798   -7.78013072764   -2.00000000000
      4.52611107891    1.48054676798   -7.78013072764   -2.00000000000
      4.52611107891   -1.48054676798   -7.78013072764   -2.00000000000
     -4.52611107891   -1.48054676798   -7.78013072764   -2.00000000000
     -6.50803929747    5.92218707193   -2.54418286035   -2.00000000000
      6.50803929747    5.92218707193   -2.54418286035   -2.00000000000
      6.50803929747   -5.92218707193   -2.54418286035   -2.00000000000
     -6.50803929747   -5.92218707193   -2.54418286035   -2.00000000000
     -7.78013072764    4.44164030394    1.98192821856   -2.00000000000
      7.78013072764    4.44164030394    1.98192821856   -2.00000000000
      7.78013072764   -4.44164030394    1.98192821856   -2.00000000000
     -7.78013072764   -4.44164030394    1.98192821856   -2.00000000000
     -1.98192821856    4.44164030394   -7.78013072764   -2.00000000000
      1.98192821856    4.44164030394   -7.78013072764   -2.00000000000
      1.98192821856   -4.44164030394   -7.78013072764   -2.00000000000
     -1.98192821856   -4.44164030394   -7.78013072764   -2.00000000000
     -6.50803929747    0.00000000000    6.50803929747   -2.00000000000
      6.50803929747    0.00000000000    6.50803929747   -2.00000000000
     -6.50803929747    0.00000000000   -6.50803929747   -2.00000000000
      6.50803929747    0.00000000000   -6.50803929747   -2.00000000000
     -3.25401964873    1.48054676798    8.48996751602    4.00000000000
      3.25401964873    1.48054676798    8.48996751602    4.00000000000
      3.25401964873   -1.48054676798    8.48996751602    4.00000000000
     -3.25401964873   -1.48054676798    8.48996751602    4.00000000000
     -0.00000000000    8.88328060789   -2.54418286035   -2.00000000000
     -0.00000000000   -8.88328060789   -2.54418286035   -2.00000000000
     -3.25401964873    7.40273383991   -4.52611107891    4.00000000000
      3.25401964873    7.40273383991   -4.52611107891    4.00000000000
      3.25401964873   -7.40273383991   -4.52611107891    4.00000000000
     -3.25401964873   -7.40273383991   -4.52611107891    4.00000000000
     -1.98192821856    7.40273383991    5.23594786729   -2.00000000000
      1.98192821856    7.40273383991    5.23594786729   -2.00000000000
      1.98192821856   -7.40273383991    5.23594786729   -2.00000000000
     -1.98192821856   -7.40273383991    5.23594786729   -2.00000000000
     -5.23594786729    7.40273383991    1.98192821856   -2.00000000000
      5.23594786729    7.40273383991    1.98192821856   -2.00000000000
      5.23594786729   -7.40273383991    1.98192821856   -2.00000000000
     -5.23594786729   -7.40273383991    1.98192821856   -2.00000000000
     -6.50803929747    4.44164030394    5.23594786729    4.00000000000
      6.50803929747    4.44164030394    5.23594786729    4.00000000000
      6.50803929747   -4.44164030394    5.23594786729    4.00000000000
     -6.50803929747   -4.44164030394    5.23594786729    4.00000000000
     -3.25401964873    8.88328060789    0.70983678838   -2.00000000000
      3.25401964873    8.88328060789    0.70983678838   -2.00000000000
      3.25401964873   -8.88328060789    0.70983678838   -2.00000000000
     -3.25401964873   -8.88328060789    0.70983678838   -2.00000000000
     -0.00000000000    2.96109353596   -9.05222215782   -2.00000000000
     -0.00000000000   -2.96109353596   -9.05222215782   -2.00000000000
     -3.25401964873    8.88328060789   -1.27209143018    4.00000000000
      3.25401964873    8.88328060789   -1.27209143018    4.00000000000
      3.25401964873   -8.88328060789   -1.27209143018    4.00000000000
     -3.25401964873   -8.88328060789   -1.27209143018    4.00000000000
     -6.50803929747    5.92218707193    3.96385643712   -2.00000000000
      6.50803929747    5.92218707193    3.96385643712   -2.00000000000
      6.50803929747   -5.92218707193    3.96385643712   -2.00000000000
     -6.50803929747   -5.92218707193    3.96385643712   -2.00000000000
     -1.27209143018    4.44164030394    8.48996751602   -2.00000000000
      1.27209143018    4.44164030394    8.48996751602   -2.00000000000
      1.27209143018   -4.44164030394    8.48996751602   -2.00000000000
     -1.27209143018   -4.44164030394    8.48996751602   -2.00000000000
     -8.48996751602    4.44164030394   -1.27209143018   -2.00000000000
      8.48996751602    4.44164030394   -1.27209143018   -2.00000000000
      8.48996751602   -4.44164030394   -1.27209143018   -2.00000000000
     -8.48996751602   -4.44164030394   -1.27209143018   -2.00000000000
     -6.50803929747    2.96109353596    6.50803929747   -2.00000000000
      6.50803929747    2.96109353596    6.50803929747   -2.00000000000
      6.50803929747   -2.96109353596    6.50803929747   -2.00000000000
     -6.50803929747   -2.96109353596    6.50803929747   -2.00000000000
     -6.50803929747    2.96109353596   -6.50803929747   -2.00000000000
      6.50803929747    2.96109353596   -6.50803929747   -2.00000000000
      6.50803929747   -2.96109353596   -6.50803929747   -2.00000000000
     -6.50803929747   -2.96109353596   -6.50803929747   -2.00000000000
     -0.00000000000    8.88328060789    3.96385643712   -2.00000000000
     -0.00000000000   -8.88328060789    3.96385643712   -2.00000000000
     -9.76205894620    0.00000000000    0.70983678838   -2.00000000000
      9.76205894620    0.00000000000    0.70983678838   -2.00000000000
     -9.76205894620    0.00000000000   -1.27209143018    4.00000000000
      9.76205894620    0.00000000000   -1.27209143018    4.00000000000
     -3.25401964873    5.92218707193    7.21787608585   -2.00000000000
      3.25401964873    5.92218707193    7.21787608585   -2.00000000000
      3.25401964873   -5.92218707193    7.21787608585   -2.00000000000
     -3.25401964873   -5.92218707193    7.21787608585   -2.00000000000
     -6.50803929747    5.92218707193   -4.52611107891    4.00000000000
      6.50803929747    5.92218707193   -4.52611107891    4.00000000000
      6.50803929747   -5.92218707193   -4.52611107891    4.00000000000
     -6.50803929747   -5.92218707193   -4.52611107891    4.00000000000
     -6.50803929747    7.40273383991   -1.27209143018    4.00000000000
      6.50803929747    7.40273383991   -1.27209143018    4.00000000000
      6.50803929747   -7.40273383991   -1.27209143018    4.00000000000
     -6.50803929747   -7.40273383991   -1.27209143018    4.00000000000
      0.00000000000    8.88328060789   -4.52611107891    4.00000000000
      0.00000000000   -8.88328060789   -4.52611107891    4.00000000000
     -3.25401964873    8.88328060789    3.25401964873   -2.00000000000
      3.25401964873    8.88328060789    3.25401964873   -2.00000000000
      3.25401964873   -8.88328060789    3.25401964873   -2.00000000000
     -3.25401964873   -8.88328060789    3.25401964873   -2.00000000000
     -3.25401964873    8.88328060789   -3.25401964873   -2.00000000000
      3.25401964873    8.88328060789   -3.25401964873   -2.00000000000
      3.25401964873   -8.88328060789   -3.25401964873   -2.00000000000
     -3.25401964873   -8.88328060789   -3.25401964873   -2.00000000000
     -7.78013072764    4.44164030394   -4.52611107891   -2.00000000000
      7.78013072764    4.44164030394   -4.52611107891   -2.00000000000
      7.78013072764   -4.44164030394   -4.52611107891   -2.00000000000
     -7.78013072764   -4.44164030394   -4.52611107891   -2.00000000000
     -4.52611107891    4.44164030394   -7.78013072764   -2.00000000000
      4.52611107891    4.44164030394   -7.78013072764   -2.00000000000
      4.52611107891   -4.44164030394   -7.78013072764   -2.00000000000
     -4.52611107891   -4.44164030394   -7.78013072764   -2.00000000000
     -9.76205894620    1.48054676798    1.98192821856    4.00000000000
      9.76205894620    1.48054676798    1.98192821856    4.00000000000
      9.76205894620   -1.48054676798    1.98192821856    4.00000000000
     -9.76205894620   -1.48054676798    1.98192821856    4.00000000000
     -5.23594786729    1.48054676798    8.48996751602   -2.00000000000
      5.23594786729    1.48054676798    8.48996751602   -2.00000000000
      5.23594786729   -1.48054676798    8.48996751602   -2.00000000000
     -5.23594786729   -1.48054676798    8.48996751602   -2.00000000000
     -8.48996751602    1.48054676798    5.23594786729   -2.00000000000
      8.48996751602    1.48054676798    5.23594786729   -2.00000000000
      8.48996751602   -1.48054676798    5.23594786729   -2.00000000000
     -8.48996751602   -1.48054676798    5.23594786729   -2.00000000000
     -3.25401964873    4.44164030394    8.48996751602    4.00000000000
      3.25401964873    4.44164030394    8.48996751602    4.00000000000
      3.25401964873   -4.44164030394    8.48996751602    4.00000000000
     -3.25401964873   -4.44164030394    8.48996751602    4.00000000000
     -4.52611107891    7.40273383991    5.23594786729   -2.00000000000
      4.52611107891    7.40273383991    5.23594786729   -2.00000000000
      4.52611107891   -7.40273383991    5.23594786729   -2.00000000000
     -4.52611107891   -7.40273383991    5.23594786729   -2.00000000000
     -5.23594786729    7.40273383991   -4.52611107891   -2.00000000000
      5.23594786729    7.40273383991   -4.52611107891   -2.00000000000
      5.23594786729   -7.40273383991   -4.52611107891   -2.00000000000
     -5.23594786729   -7.40273383991   -4.52611107891   -2.00000000000
     -9.76205894620    2.96109353596    0.70983678838   -2.00000000000
      9.76205894620    2.96109353596    0.70983678838   -2.00000000000
      9.76205894620   -2.96109353596    0.70983678838   -2.00000000000
     -9.76205894620   -2.96109353596    0.70983678838   -2.00000000000
     -6.50803929747    1.48054676798   -7.78013072764    4.00000000000
      6.50803929747    1.48054676798   -7.78013072764    4.00000000000
      6.50803929747   -1.48054676798   -7.78013072764    4.00000000000
     -6.50803929747   -1.48054676798   -7.78013072764    4.00000000000
     -9.76205894620    2.96109353596   -1.27209143018    4.00000000000
      9.76205894620    2.96109353596   -1.27209143018    4.00000000000
      9.76205894620   -2.96109353596   -1.27209143018    4.00000000000
     -9.76205894620   -2.96109353596   -1.27209143018    4.00000000000
     -3.25401964873    0.00000000000    9.76205894620   -2.00000000000
      3.25401964873    0.00000000000    9.76205894620   -2.00000000000
     -9.76205894620    0.00000000000    3.25401964873   -2.00000000000
      9.76205894620    0.00000000000    3.25401964873   -2.00000000000
     -9.76205894620    0.00000000000   -3.25401964873   -2.00000000000
      9.76205894620    0.00000000000   -3.25401964873   -2.00000000000
     -3.25401964873    0.00000000000   -9.76205894620   -2.00000000000
      3.25401964873    0.00000000000   -9.76205894620   -2.00000000000
     -3.25401964873    5.92218707193   -7.78013072764    4.00000000000
      3.25401964873    5.92218707193   -7.78013072764    4.00000000000
      3.25401964873   -5.92218707193   -7.78013072764    4.00000000000
     -3.25401964873   -5.92218707193   -7.78013072764    4.00000000000
      0.00000000000    5.92218707193    8.48996751602    4.00000000000
      0.00000000000   -5.92218707193    8.48996751602    4.00000000000
      0.00000000000   10.36382737587   -1.27209143018    4.00000000000
      0.00000000000  -10.36382737587   -1.27209143018    4.00000000000
     -0.00000000000    0.00000000000   10.47189573458   -2.00000000000
     -1.27209143018   10.36382737587    1.98192821856   -2.00000000000
      1.27209143018   10.36382737587    1.98192821856   -2.00000000000
      1.27209143018  -10.36382737587    1.98192821856   -2.00000000000
     -1.27209143018  -10.36382737587    1.98192821856   -2.00000000000
     -1.98192821856   10.36382737587   -1.27209143018   -2.00000000000
      1.98192821856   10.36382737587   -1.27209143018   -2.00000000000
      1.98192821856  -10.36382737587   -1.27209143018   -2.00000000000
     -1.98192821856  -10.36382737587   -1.27209143018   -2.00000000000
     -6.50803929747    0.00000000000    8.48996751602    4.00000000000
      6.50803929747    0.00000000000    8.48996751602    4.00000000000
     -3.25401964873    2.96109353596    9.76205894620   -2.00000000000
      3.25401964873    2.96109353596    9.76205894620   -2.00000000000
      3.25401964873   -2.96109353596    9.76205894620   -2.00000000000
     -3.25401964873   -2.96109353596    9.76205894620   -2.00000000000
     -9.76205894620    2.96109353596    3.25401964873   -2.00000000000
      9.76205894620    2.96109353596    3.25401964873   -2.00000000000
      9.76205894620   -2.96109353596    3.25401964873   -2.00000000000
     -9.76205894620   -2.96109353596    3.25401964873   -2.00000000000
     -9.76205894620    2.96109353596   -3.25401964873   -2.00000000000
      9.76205894620    2.96109353596   -3.25401964873   -2.00000000000
      9.76205894620   -2.96109353596   -3.25401964873   -2.00000000000
     -9.76205894620   -2.96109353596   -3.25401964873   -2.00000000000
     -3.25401964873    2.96109353596   -9.76205894620   -2.00000000000
      3.25401964873    2.96109353596   -9.76205894620   -2.00000000000
      3.25401964873   -2.96109353596   -9.76205894620   -2.00000000000
     -3.25401964873   -2.96109353596   -9.76205894620   -2.00000000000
      0.00000000000    7.40273383991   -7.78013072764    4.00000000000
      0.00000000000   -7.40273383991   -7.78013072764    4.00000000000
     -3.25401964873    8.88328060789    5.23594786729    4.00000000000
      3.25401964873    8.88328060789    5.23594786729    4.00000000000
      3.25401964873   -8.88328060789    5.23594786729    4.00000000000
     -3.25401964873   -8.88328060789    5.23594786729    4.00000000000
     -0.00000000000    5.92218707193   -9.05222215782   -2.00000000000
     -0.00000000000   -5.92218707193   -9.05222215782   -2.00000000000
     -9.76205894620    1.48054676798   -4.52611107891    4.00000000000
      9.76205894620    1.48054676798   -4.52611107891    4.00000000000
      9.76205894620   -1.48054676798   -4.52611107891    4.00000000000
     -9.76205894620   -1.48054676798   -4.52611107891    4.00000000000
     -0.00000000000    2.96109353596   10.47189573458   -2.00000000000
     -0.00000000000   -2.96109353596   10.47189573458   -2.00000000000
     -9.76205894620    4.44164030394    1.98192821856    4.00000000000
      9.76205894620    4.44164030394    1.98192821856    4.00000000000
      9.76205894620   -4.44164030394    1.98192821856    4.00000000000
     -9.76205894620   -4.44164030394    1.98192821856    4.00000000000
     -5.23594786729    4.44164030394    8.48996751602   -2.00000000000
      5.23594786729    4.44164030394    8.48996751602   -2.00000000000
      5.23594786729   -4.44164030394    8.48996751602   -2.00000000000
     -5.23594786729   -4.44164030394    8.48996751602   -2.00000000000
     -8.48996751602    4.44164030394    5.23594786729   -2.00000000000
      8.48996751602    4.44164030394    5.23594786729   -2.00000000000
      8.48996751602   -4.44164030394    5.23594786729   -2.00000000000
     -8.48996751602   -4.44164030394    5.23594786729   -2.00000000000
     -7.78013072764    7.40273383991    1.98192821856   -2.00000000000
      7.78013072764    7.40273383991    1.98192821856   -2.00000000000
      7.78013072764   -7.40273383991    1.98192821856   -2.00000000000
     -7.78013072764   -7.40273383991    1.98192821856   -2.00000000000
     -1.98192821856    7.40273383991   -7.78013072764   -2.00000000000
      1.98192821856    7.40273383991   -7.78013072764   -2.00000000000
      1.98192821856   -7.40273383991   -7.78013072764   -2.00000000000
     -1.98192821856   -7.40273383991   -7.78013072764   -2.00000000000
     -6.50803929747    5.92218707193    6.50803929747   -2.00000000000
      6.50803929747    5.92218707193    6.50803929747   -2.00000000000
      6.50803929747   -5.92218707193    6.50803929747   -2.00000000000
     -6.50803929747   -5.92218707193    6.50803929747   -2.00000000000
     -6.50803929747    5.92218707193   -6.50803929747   -2.00000000000
      6.50803929747    5.92218707193   -6.50803929747   -2.00000000000
      6.50803929747   -5.92218707193   -6.50803929747   -2.00000000000
     -6.50803929747   -5.92218707193   -6.50803929747   -2.00000000000
      0.00000000000    8.88328060789    6.50803929747   -2.00000000000
      0.00000000000   -8.88328060789    6.50803929747   -2.00000000000
     -6.50803929747    8.88328060789    0.00000000000   -2.00000000000
      6.50803929747    8.88328060789    0.00000000000   -2.00000000000
      6.50803929747   -8.88328060789    0.00000000000   -2.00000000000
     -6.50803929747   -8.88328060789    0.00000000000   -2.00000000000
      0.00000000000    8.88328060789   -6.50803929747   -2.00000000000
      0.00000000000   -8.88328060789   -6.50803929747   -2.00000000000
      0.00000000000    0.00000000000  -11.03415037637    4.00000000000
     -3.25401964873   10.36382737587    1.98192821856    4.00000000000
      3.25401964873   10.36382737587    1.98192821856    4.00000000000
      3.25401964873  -10.36382737587    1.98192821856    4.00000000000
     -3.25401964873  -10.36382737587    1.98192821856    4.00000000000
     -6.50803929747    4.44164030394   -7.78013072764    4.00000000000
      6.50803929747    4.44164030394   -7.78013072764    4.00000000000
      6.50803929747   -4.44164030394   -7.78013072764    4.00000000000
     -6.50803929747   -4.44164030394   -7.78013072764    4.00000000000
     -9.76205894620    0.00000000000    5.23594786729    4.00000000000
      9.76205894620    0.00000000000    5.23594786729    4.00000000000
     -3.25401964873    8.88328060789   -5.79820250908   -2.00000000000
      3.25401964873    8.88328060789   -5.79820250908   -2.00000000000
      3.25401964873   -8.88328060789   -5.79820250908   -2.00000000000
     -3.25401964873   -8.88328060789   -5.79820250908   -2.00000000000
     -6.50803929747    2.96109353596    8.48996751602    4.00000000000
      6.50803929747    2.96109353596    8.48996751602    4.00000000000
      6.50803929747   -2.96109353596    8.48996751602    4.00000000000
     -6.50803929747   -2.96109353596    8.48996751602    4.00000000000
     -6.50803929747    0.00000000000   -9.05222215782   -2.00000000000
      6.50803929747    0.00000000000   -9.05222215782   -2.00000000000
     -6.50803929747    7.40273383991    5.23594786729    4.00000000000
      6.50803929747    7.40273383991    5.23594786729    4.00000000000
      6.50803929747   -7.40273383991    5.23594786729    4.00000000000
     -6.50803929747   -7.40273383991    5.23594786729    4.00000000000
     -6.50803929747    8.88328060789    1.98192821856    4.00000000000
      6.50803929747    8.88328060789    1.98192821856    4.00000000000
      6.50803929747   -8.88328060789    1.98192821856    4.00000000000
     -6.50803929747   -8.88328060789    1.98192821856    4.00000000000
    -11.03415037637    1.48054676798   -1.27209143018   -2.00000000000
     11.03415037637    1.48054676798   -1.27209143018   -2.00000000000
     11.03415037637   -1.48054676798   -1.27209143018   -2.00000000000
    -11.03415037637   -1.48054676798   -1.27209143018   -2.00000000000
     -1.27209143018    1.48054676798  -11.03415037637   -2.00000000000
      1.27209143018    1.48054676798  -11.03415037637   -2.00000000000
      1.27209143018   -1.48054676798  -11.03415037637   -2.00000000000
     -1.27209143018   -1.48054676798  -11.03415037637   -2.00000000000
     -6.50803929747    8.88328060789   -2.54418286035   -2.00000000000
      6.50803929747    8.88328060789   -2.54418286035   -2.00000000000
      6.50803929747   -8.88328060789   -2.54418286035   -2.00000000000
     -6.50803929747   -8.88328060789   -2.54418286035   -2.00000000000
     -1.27209143018    7.40273383991    8.48996751602   -2.00000000000
      1.27209143018    7.40273383991    8.48996751602   -2.00000000000
      1.27209143018   -7.40273383991    8.48996751602   -2.00000000000
     -1.27209143018   -7.40273383991    8.48996751602   -2.00000000000
     -8.48996751602    7.40273383991   -1.27209143018   -2.00000000000
      8.48996751602    7.40273383991   -1.27209143018   -2.00000000000
      8.48996751602   -7.40273383991   -1.27209143018   -2.00000000000
     -8.48996751602   -7.40273383991   -1.27209143018   -2.00000000000
     -9.76205894620    0.00000000000   -5.79820250908   -2.00000000000
      9.76205894620    0.00000000000   -5.79820250908   -2.00000000000
     -4.52611107891   10.36382737587   -1.27209143018   -2.00000000000
      4.52611107891   10.36382737587   -1.27209143018   -2.00000000000
      4.52611107891  -10.36382737587   -1.27209143018   -2.00000000000
     -4.52611107891  -10.36382737587   -1.27209143018   -2.00000000000
     -1.27209143018   10.36382737587   -4.52611107891   -2.00000000000
      1.27209143018   10.36382737587   -4.52611107891   -2.00000000000
      1.27209143018  -10.36382737587   -4.52611107891   -2.00000000000
     -1.27209143018  -10.36382737587   -4.52611107891   -2.00000000000
      0.00000000000    2.96109353596  -11.03415037637    4.00000000000
      0.00000000000   -2.96109353596  -11.03415037637    4.00000000000
     -9.76205894620    5.92218707193    0.70983678838   -2.00000000000
      9.76205894620    5.92218707193    0.70983678838   -2.00000000000
      9.76205894620   -5.92218707193    0.70983678838   -2.00000000000
     -9.76205894620   -5.92218707193    0.70983678838   -2.00000000000
     -9.76205894620    2.96109353596    5.23594786729    4.00000000000
      9.76205894620    2.96109353596    5.23594786729    4.00000000000
      9.76205894620   -2.96109353596    5.23594786729    4.00000000000
     -9.76205894620   -2.96109353596    5.23594786729    4.00000000000
     -9.76205894620    5.92218707193   -1.27209143018    4.00000000000
      9.76205894620    5.92218707193   -1.27209143018    4.00000000000
      9.76205894620   -5.92218707193   -1.27209143018    4.00000000000
     -9.76205894620   -5.92218707193   -1.27209143018    4.00000000000
     -6.50803929747    2.96109353596   -9.05222215782   -2.00000000000
      6.50803929747    2.96109353596   -9.05222215782   -2.00000000000
      6.50803929747   -2.96109353596   -9.05222215782   -2.00000000000
     -6.50803929747   -2.96109353596   -9.05222215782   -2.00000000000
     -3.25401964873    1.48054676798  -11.03415037637    4.00000000000
      3.25401964873    1.48054676798  -11.03415037637    4.00000000000
      3.25401964873   -1.48054676798  -11.03415037637    4.00000000000
     -3.25401964873   -1.48054676798  -11.03415037637    4.00000000000
     -7.78013072764    1.48054676798    8.48996751602   -2.00000000000
      7.78013072764    1.48054676798    8.48996751602   -2.00000000000
      7.78013072764   -1.48054676798    8.48996751602   -2.00000000000
     -7.78013072764   -1.48054676798    8.48996751602   -2.00000000000
     -8.48996751602    1.48054676798   -7.78013072764   -2.00000000000
      8.48996751602    1.48054676798   -7.78013072764   -2.00000000000
      8.48996751602   -1.48054676798   -7.78013072764   -2.00000000000
     -8.48996751602   -1.48054676798   -7.78013072764   -2.00000000000
      0.00000000000   10.36382737587    5.23594786729    4.00000000000
      0.00000000000  -10.36382737587    5.23594786729    4.00000000000
     -9.76205894620    4.44164030394   -4.52611107891    4.00000000000
      9.76205894620    4.44164030394   -4.52611107891    4.00000000000
      9.76205894620   -4.44164030394   -4.52611107891    4.00000000000
     -9.76205894620   -4.44164030394   -4.52611107891    4.00000000000
     -7.78013072764    7.40273383991   -4.52611107891   -2.00000000000
      7.78013072764    7.40273383991   -4.52611107891   -2.00000000000
      7.78013072764   -7.40273383991   -4.52611107891   -2.00000000000
     -7.78013072764   -7.40273383991   -4.52611107891   -2.00000000000
     -4.52611107891    7.40273383991   -7.78013072764   -2.00000000000
      4.52611107891    7.40273383991   -7.78013072764   -2.00000000000
      4.52611107891   -7.40273383991   -7.78013072764   -2.00000000000
     -4.52611107891   -7.40273383991   -7.78013072764   -2.00000000000
     -6.50803929747    8.88328060789    3.96385643712   -2.00000000000
      6.50803929747    8.88328060789    3.96385643712   -2.00000000000
      6.50803929747   -8.88328060789    3.96385643712   -2.00000000000
     -6.50803929747   -8.88328060789    3.96385643712   -2.00000000000
     -3.25401964873    7.40273383991    8.48996751602    4.00000000000
      3.25401964873    7.40273383991    8.48996751602    4.00000000000
      3.25401964873   -7.40273383991    8.48996751602    4.00000000000
     -3.25401964873   -7.40273383991    8.48996751602    4.00000000000
     -9.76205894620    2.96109353596   -5.79820250908   -2.00000000000
      9.76205894620    2.96109353596   -5.79820250908   -2.00000000000
      9.76205894620   -2.96109353596   -5.79820250908   -2.00000000000
     -9.76205894620   -2.96109353596   -5.79820250908   -2.00000000000
     -3.25401964873   10.36382737587   -4.52611107891    4.00000000000
      3.25401964873   10.36382737587   -4.52611107891    4.00000000000
      3.25401964873  -10.36382737587   -4.52611107891    4.00000000000
     -3.25401964873  -10.36382737587   -4.52611107891    4.00000000000
     -1.98192821856   10.36382737587    5.23594786729   -2.00000000000
      1.98192821856   10.36382737587    5.23594786729   -2.00000000000
      1.98192821856  -10.36382737587    5.23594786729   -2.00000000000
     -1.98192821856  -10.36382737587    5.23594786729   -2.00000000000
     -5.23594786729   10.36382737587    1.98192821856   -2.00000000000
      5.23594786729   10.36382737587    1.98192821856   -2.00000000000
      5.23594786729  -10.36382737587    1.98192821856   -2.00000000000
     -5.23594786729  -10.36382737587    1.98192821856   -2.00000000000
      0.00000000000    1.48054676798   11.74398716476    4.00000000000
      0.00000000000   -1.48054676798   11.74398716476    4.00000000000
      0.00000000000   11.84437414385    0.00000000000   -2.00000000000
      0.00000000000  -11.84437414385    0.00000000000   -2.00000000000
     -3.25401964873    5.92218707193    9.76205894620   -2.00000000000
      3.25401964873    5.92218707193    9.76205894620   -2.00000000000
      3.25401964873   -5.92218707193    9.76205894620   -2.00000000000
     -3.25401964873   -5.92218707193    9.76205894620   -2.00000000000
     -9.76205894620    5.92218707193    3.25401964873   -2.00000000000
      9.76205894620    5.92218707193    3.25401964873   -2.00000000000
      9.76205894620   -5.92218707193    3.25401964873   -2.00000000000
     -9.76205894620   -5.92218707193    3.25401964873   -2.00000000000
     -9.76205894620    5.92218707193   -3.25401964873   -2.00000000000
      9.76205894620    5.92218707193   -3.25401964873   -2.00000000000
      9.76205894620   -5.92218707193   -3.25401964873   -2.00000000000
     -9.76205894620   -5.92218707193   -3.25401964873   -2.00000000000
     -3.25401964873    5.92218707193   -9.76205894620   -2.00000000000
      3.25401964873    5.92218707193   -9.76205894620   -2.00000000000
      3.25401964873   -5.92218707193   -9.76205894620   -2.00000000000
     -3.25401964873   -5.92218707193   -9.76205894620   -2.00000000000
     -3.25401964873    8.88328060789    7.21787608585   -2.00000000000
      3.25401964873    8.88328060789    7.21787608585   -2.00000000000
      3.25401964873   -8.88328060789    7.21787608585   -2.00000000000
     -3.25401964873   -8.88328060789    7.21787608585   -2.00000000000
     -6.50803929747    8.88328060789   -4.52611107891    4.00000000000
      6.50803929747    8.88328060789   -4.52611107891    4.00000000000
      6.50803929747   -8.88328060789   -4.52611107891    4.00000000000
     -6.50803929747   -8.88328060789   -4.52611107891    4.00000000000
    -11.03415037637    4.44164030394   -1.27209143018   -2.00000000000
     11.03415037637    4.44164030394   -1.27209143018   -2.00000000000
     11.03415037637   -4.44164030394   -1.27209143018   -2.00000000000
    -11.03415037637   -4.44164030394   -1.27209143018   -2.00000000000
[...]
 2645   A          2.845422       2.845422
 2646   A          2.846128       2.846128
 2647   A          2.848976       2.848976
 2648   A          2.851409       2.851409
 2649   A          2.851545       2.851545
 2650   A          2.852800       2.852800
 2651   A          2.854749       2.854749
 2652   A          2.856808       2.856808
 2653   A          2.857245       2.857245
 2654   A          2.861021       2.861021
 2655   A          2.862269       2.862269
 2656   A          2.862573       2.862573
 2657   A          2.863438       2.863438
 2658   A          2.867448       2.867448
 2659   A          2.869767       2.869767
 2660   A          2.870030       2.870030
 2661   A          2.873707       2.873707
 2662   A          2.875104       2.875104
 2663   A          2.876233       2.876233
 2664   A          2.877614       2.877614
 2665   A          2.878051       2.878051
 2666   A          2.880705       2.880705
 2667   A          2.881998       2.881998
 2668   A          2.882815       2.882815
 2669   A          2.883832       2.883832
 2670   A          2.884259       2.884259
 2671   A          2.884361       2.884361
 2672   A          2.888958       2.888958
 2673   A          2.888963       2.888963
 2674   A          2.890111       2.890111
 2675   A          2.893060       2.893060
 2676   A          2.893728       2.893728
 2677   A          2.894200       2.894200
 2678   A          2.895180       2.895180
 2679   A          2.895872       2.895872
 2680   A          2.896036       2.896036
 2681   A          2.898229       2.898229
 2682   A          2.898450       2.898450
 2683   A          2.899944       2.899944
 2684   A          2.905222       2.905222
 2685   A          2.905956       2.905956
 2686   A          2.906419       2.906419
 2687   A          2.907962       2.907962
 2688   A          2.908321       2.908321
 2689   A          2.909985       2.909985
 2690   A          2.910280       2.910280
 2691   A          2.912298       2.912298
 2692   A          2.914106       2.914106
 2693   A          2.915246       2.915246
 2694   A          2.915814       2.915814
 2695   A          2.916850       2.916850
 2696   A          2.919467       2.919467
 2697   A          2.920146       2.920146
 2698   A          2.921353       2.921353
 2699   A          2.921590       2.921590
 2700   A          2.923507       2.923507
 2701   A          2.924402       2.924402
 2702   A          2.924413       2.924413
 2703   A          2.925289       2.925289
 2704   A          2.925553       2.925553
 2705   A          2.926254       2.926254
 2706   A          2.927435       2.927435
 2707   A          2.927479       2.927479
 2708   A          2.927684       2.927684
 2709   A          2.928119       2.928119
 2710   A          2.928307       2.928307
 2711   A          2.929397       2.929397
 2712   A          2.930602       2.930602
 2713   A          2.931515       2.931515
 2714   A          2.932208       2.932208
 2715   A          2.932617       2.932617
 2716   A          2.936069       2.936069
 2717   A          2.936187       2.936187
 2718   A          2.937165       2.937165
 2719   A          2.937969       2.937969
 2720   A          2.938226       2.938226
 2721   A          2.940565       2.940565
 2722   A          2.940775       2.940775
 2723   A          2.941738       2.941738
 2724   A          2.942998       2.942998
 2725   A          2.943138       2.943138
 2726   A          2.944330       2.944330
 2727   A          2.944894       2.944894
 2728   A          2.945556       2.945556
 2729   A          2.946166       2.946166
 2730   A          2.947349       2.947349
 2731   A          2.948655       2.948655
 2732   A          2.949472       2.949472
 2733   A          2.949805       2.949805
 2734   A          2.950209       2.950209
 2735   A          2.952244       2.952244
 2736   A          2.952981       2.952981
 2737   A          2.953429       2.953429
 2738   A          2.954936       2.954936
 2739   A          2.956037       2.956037
 2740   A          2.957890       2.957890
 2741   A          2.958276       2.958276
 2742   A          2.959448       2.959448
 2743   A          2.960850       2.960850
 2744   A          2.961247       2.961247
 2745   A          2.962157       2.962157
 2746   A          2.962407       2.962407
 2747   A          2.964441       2.964441
 2748   A          2.966524       2.966524
 2749   A          2.966684       2.966684
 2750   A          2.967707       2.967707
 2751   A          2.968016       2.968016
 2752   A          2.969506       2.969506
 2753   A          2.969679       2.969679
 2754   A          2.971433       2.971433
 2755   A          2.972687       2.972687
 2756   A          2.972812       2.972812
 2757   A          2.972833       2.972833
 2758   A          2.973558       2.973558
 2759   A          2.974465       2.974465
 2760   A          2.974568       2.974568
 2761   A          2.974618       2.974618
 2762   A          2.976699       2.976699
 2763   A          2.978133       2.978133
 2764   A          2.979832       2.979832
 2765   A          2.980281       2.980281
 2766   A          2.980362       2.980362
 2767   A          2.982643       2.982643
 2768   A          2.983572       2.983572
 2769   A          2.984876       2.984876
 2770   A          2.985734       2.985734
 2771   A          2.986951       2.986951
 2772   A          2.987583       2.987583
 2773   A          2.987861       2.987861
 2774   A          2.988244       2.988244
 2775   A          2.988488       2.988488
 2776   A          2.990401       2.990401
 2777   A          2.990656       2.990656
 2778   A          2.992692       2.992692
 2779   A          2.993589       2.993589
 2780   A          2.993660       2.993660
 2781   A          2.993961       2.993961
 2782   A          2.996468       2.996468
 2783   A          2.998542       2.998542
 2784   A          2.999194       2.999194
 2785   A          2.999787       2.999787
 2786   A          2.999819       2.999819
 2787   A          3.000123       3.000123
 2788   A          3.001041       3.001041
 2789   A          3.001429       3.001429
 2790   A          3.002439       3.002439
 2791   A          3.002734       3.002734
 2792   A          3.003801       3.003801
 2793   A          3.004028       3.004028
 2794   A          3.004275       3.004275
 2795   A          3.005099       3.005099
 2796   A          3.006249       3.006249
 2797   A          3.008819       3.008819
 2798   A          3.009886       3.009886
 2799   A          3.010087       3.010087
 2800   A          3.010376       3.010376
 2801   A          3.013441       3.013441
 2802   A          3.013678       3.013678
 2803   A          3.014456       3.014456
 2804   A          3.014826       3.014826
 2805   A          3.016954       3.016954
 2806   A          3.017296       3.017296
 2807   A          3.017356       3.017356
 2808   A          3.017467       3.017467
 2809   A          3.018074       3.018074
 2810   A          3.018531       3.018531
 2811   A          3.020656       3.020656
 2812   A          3.020774       3.020774
 2813   A          3.021754       3.021754
 2814   A          3.021794       3.021794
 2815   A          3.022992       3.022992
 2816   A          3.024636       3.024636
 2817   A          3.025160       3.025160
 2818   A          3.025432       3.025432
 2819   A          3.026036       3.026036
 2820   A          3.026768       3.026768
 2821   A          3.027890       3.027890
 2822   A          3.028508       3.028508
 2823   A          3.029824       3.029824
 2824   A          3.030010       3.030010
 2825   A          3.030407       3.030407
 2826   A          3.031231       3.031231
 2827   A          3.031569       3.031569
 2828   A          3.032917       3.032917
 2829   A          3.033887       3.033887
 2830   A          3.034771       3.034771
 2831   A          3.035400       3.035400
 2832   A          3.035436       3.035436
 2833   A          3.035813       3.035813
 2834   A          3.036398       3.036398
 2835   A          3.038117       3.038117
 2836   A          3.039198       3.039198
 2837   A          3.040322       3.040322
 2838   A          3.040351       3.040351
 2839   A          3.040795       3.040795
 2840   A          3.040816       3.040816
 2841   A          3.042265       3.042265
 2842   A          3.043647       3.043647
 2843   A          3.044863       3.044863
 2844   A          3.045000       3.045000
 2845   A          3.045138       3.045138
 2846   A          3.045971       3.045971
 2847   A          3.048004       3.048004
 2848   A          3.048144       3.048144
 2849   A          3.048649       3.048649
 2850   A          3.049527       3.049527
 2851   A          3.050080       3.050080
 2852   A          3.050178       3.050178
 2853   A          3.050904       3.050904
 2854   A          3.051028       3.051028
 2855   A          3.052149       3.052149
 2856   A          3.052558       3.052558
 2857   A          3.053675       3.053675
 2858   A          3.054933       3.054933
 2859   A          3.056175       3.056175
 2860   A          3.056184       3.056184
 2861   A          3.056912       3.056912
 2862   A          3.057015       3.057015
 2863   A          3.057395       3.057395
 2864   A          3.058714       3.058714
 2865   A          3.060071       3.060071
 2866   A          3.061416       3.061416
 2867   A          3.062033       3.062033
 2868   A          3.062045       3.062045
 2869   A          3.064025       3.064025
 2870   A          3.064812       3.064812
 2871   A          3.065702       3.065702
 2872   A          3.065709       3.065709
 2873   A          3.065845       3.065845
 2874   A          3.066443       3.066443
 2875   A          3.068307       3.068307
 2876   A          3.068912       3.068912
 2877   A          3.072947       3.072947
 2878   A          3.073195       3.073195
 2879   A          3.073619       3.073619
 2880   A          3.073756       3.073756
 2881   A          3.074832       3.074832
 2882   A          3.075746       3.075746
 2883   A          3.075935       3.075935
 2884   A          3.076558       3.076558
 2885   A          3.078628       3.078628
 2886   A          3.079300       3.079300
 2887   A          3.081079       3.081079
 2888   A          3.081607       3.081607
 2889   A          3.083158       3.083158
 2890   A          3.083383       3.083383
 2891   A          3.083531       3.083531
 2892   A          3.084924       3.084924
 2893   A          3.085458       3.085458
 2894   A          3.087239       3.087239
 2895   A          3.089254       3.089254
 2896   A          3.089471       3.089471
 2897   A          3.091100       3.091100
 2898   A          3.093717       3.093717
 2899   A          3.094678       3.094678
 2900   A          3.095174       3.095174
 2901   A          3.095297       3.095297
 2902   A          3.097502       3.097502
 2903   A          3.099923       3.099923
 2904   A          3.100668       3.100668
 2905   A          3.107242       3.107242
 2906   A          3.108058       3.108058
 2907   A          3.108661       3.108661
 2908   A          3.114801       3.114801
 2909   A          3.115432       3.115432
 2910   A          3.115725       3.115725
 2911   A          3.118230       3.118230
 2912   A          3.119437       3.119437
 2913   A          3.121250       3.121250
 2914   A          3.121703       3.121703
 2915   A          3.122652       3.122652
 2916   A          3.124352       3.124352
 2917   A          3.125892       3.125892
 2918   A          3.128945       3.128945
 2919   A          3.135623       3.135623
 2920   A          3.135827       3.135827
 2921   A          3.137809       3.137809
 2922   A          3.139530       3.139530
 2923   A          3.142876       3.142876
 2924   A          3.143607       3.143607
 2925   A          3.145956       3.145956
 2926   A          3.147674       3.147674
 2927   A          3.147938       3.147938
 2928   A          3.151499       3.151499
 2929   A          3.153249       3.153249
 2930   A          3.155467       3.155467
 2931   A          3.163240       3.163240
 2932   A          3.171173       3.171173
 2933   A          3.174812       3.174812
 2934   A          3.175638       3.175638
 2935   A          3.177538       3.177538
 2936   A          3.178903       3.178903
 2937   A          3.180067       3.180067
 2938   A          3.191785       3.191785
 2939   A          3.197280       3.197280
 2940   A          3.197340       3.197340
 2941   A          3.198177       3.198177
 2942   A          3.198468       3.198468
 2943   A          3.201718       3.201718
 2944   A          3.201760       3.201760
 2945   A          3.202882       3.202882
 2946   A          3.207617       3.207617
 2947   A          3.213376       3.213376
 2948   A          3.216722       3.216722
 2949   A          3.219269       3.219269
 2950   A          3.220057       3.220057
 2951   A          3.220235       3.220235
 2952   A          3.222810       3.222810
 2953   A          3.225735       3.225735
 2954   A          3.227295       3.227295
 2955   A          3.228091       3.228091
 2956   A          3.230214       3.230214
 2957   A          3.233376       3.233376
 2958   A          3.233467       3.233467
 2959   A          3.238678       3.238678
 2960   A          3.242869       3.242869
 2961   A          3.243817       3.243817
 2962   A          3.244389       3.244389
 2963   A          3.246907       3.246907
 2964   A          3.253479       3.253479
 2965   A          3.254319       3.254319
 2966   A          3.255626       3.255626
 2967   A          3.257345       3.257345
 2968   A          3.260598       3.260598
 2969   A          3.261524       3.261524
 2970   A          3.266255       3.266255
 2971   A          3.269146       3.269146
 2972   A          3.272129       3.272129
 2973   A          3.274465       3.274465
 2974   A          3.275753       3.275753
 2975   A          3.279176       3.279176
 2976   A          3.281696       3.281696
 2977   A          3.285714       3.285714
 2978   A          3.286996       3.286996
 2979   A          3.287143       3.287143
 2980   A          3.287906       3.287906
 2981   A          3.288578       3.288578
 2982   A          3.292865       3.292865
 2983   A          3.293139       3.293139
 2984   A          3.296807       3.296807
 2985   A          3.299399       3.299399
 2986   A          3.301365       3.301365
 2987   A          3.304160       3.304160
 2988   A          3.306656       3.306656
 2989   A          3.306854       3.306854
 2990   A          3.308358       3.308358
 2991   A          3.318864       3.318864
 2992   A          3.320930       3.320930
 2993   A          3.323022       3.323022
 2994   A          3.324692       3.324692
 2995   A          3.325077       3.325077
 2996   A          3.329811       3.329811
 2997   A          3.331077       3.331077
 2998   A          3.334263       3.334263
 2999   A          3.336364       3.336364
 3000   A          3.336550       3.336550
 3001   A          3.338372       3.338372
 3002   A          3.340916       3.340916
 3003   A          3.344334       3.344334
 3004   A          3.344622       3.344622
 3005   A          3.346379       3.346379
 3006   A          3.346854       3.346854
 3007   A          3.352742       3.352742
 3008   A          3.352825       3.352825
 3009   A          3.356451       3.356451
 3010   A          3.360468       3.360468
 3011   A          3.360550       3.360550
 3012   A          3.361385       3.361385
 3013   A          3.361869       3.361869
 3014   A          3.368758       3.368758
 3015   A          3.373343       3.373343
 3016   A          3.374206       3.374206
 3017   A          3.379027       3.379027
 3018   A          3.379577       3.379577
 3019   A          3.380252       3.380252
 3020   A          3.380326       3.380326
 3021   A          3.381474       3.381474
 3022   A          3.385241       3.385241
 3023   A          3.386366       3.386366
 3024   A          3.386495       3.386495
 3025   A          3.387713       3.387713
 3026   A          3.389154       3.389154
 3027   A          3.391417       3.391417
 3028   A          3.391534       3.391534
 3029   A          3.392345       3.392345
 3030   A          3.393495       3.393495
 3031   A          3.400011       3.400011
 3032   A          3.400054       3.400054
 3033   A          3.400542       3.400542
 3034   A          3.403133       3.403133
 3035   A          3.403395       3.403395
 3036   A          3.408251       3.408251
 3037   A          3.409058       3.409058
 3038   A          3.411143       3.411143
 3039   A          3.411581       3.411581
 3040   A          3.411582       3.411582
 3041   A          3.413713       3.413713
 3042   A          3.414269       3.414269
 3043   A          3.416244       3.416244
 3044   A          3.418736       3.418736
 3045   A          3.419232       3.419232
 3046   A          3.420827       3.420827
 3047   A          3.421430       3.421430
 3048   A          3.423515       3.423515
 3049   A          3.427026       3.427026
 3050   A          3.428912       3.428912
 3051   A          3.429332       3.429332
 3052   A          3.429437       3.429437
 3053   A          3.431738       3.431738
 3054   A          3.434110       3.434110
 3055   A          3.436533       3.436533
 3056   A          3.436790       3.436790
 3057   A          3.437302       3.437302
 3058   A          3.439546       3.439546
 3059   A          3.446569       3.446569
 3060   A          3.453033       3.453033
 3061   A          3.453743       3.453743
 3062   A          3.454175       3.454175
 3063   A          3.454402       3.454402
 3064   A          3.456853       3.456853
 3065   A          3.457483       3.457483
 3066   A          3.458964       3.458964
 3067   A          3.460810       3.460810
 3068   A          3.462751       3.462751
 3069   A          3.462869       3.462869
 3070   A          3.464381       3.464381
 3071   A          3.467637       3.467637
 3072   A          3.469194       3.469194
 3073   A          3.473803       3.473803
 3074   A          3.475258       3.475258
 3075   A          3.478385       3.478385
 3076   A          3.480703       3.480703
 3077   A          3.481656       3.481656
 3078   A          3.485895       3.485895
 3079   A          3.487739       3.487739
 3080   A          3.487899       3.487899
 3081   A          3.489484       3.489484
 3082   A          3.491563       3.491563
 3083   A          3.493340       3.493340
 3084   A          3.494319       3.494319
 3085   A          3.497228       3.497228
 3086   A          3.498612       3.498612
 3087   A          3.503164       3.503164
 3088   A          3.504310       3.504310
 3089   A          3.504574       3.504574
 3090   A          3.506244       3.506244
 3091   A          3.510537       3.510537
 3092   A          3.510645       3.510645
 3093   A          3.515784       3.515784
 3094   A          3.516856       3.516856
 3095   A          3.525188       3.525188
 3096   A          3.526538       3.526538
 3097   A          3.529193       3.529193
 3098   A          3.531722       3.531722
 3099   A          3.533672       3.533672
 3100   A          3.539900       3.539900
 3101   A          3.542733       3.542733
 3102   A          3.549808       3.549808
 
 RETURNING FROM SCF ALGORITHM
 ======================================================================
 
 ************************ 2021-10-19 05:51:00 *************************
                      Normal termination of mrcc.
 **********************************************************************
