
                                 *****************
                                 * O   R   C   A *
                                 *****************

                                            #,                                       
                                            ###                                      
                                            ####                                     
                                            #####                                    
                                            ######                                   
                                           ########,                                 
                                     ,,################,,,,,                         
                               ,,#################################,,                 
                          ,,##########################################,,             
                       ,#########################################, ''#####,          
                    ,#############################################,,   '####,        
                  ,##################################################,,,,####,       
                ,###########''''           ''''###############################       
              ,#####''   ,,,,##########,,,,          '''####'''          '####       
            ,##' ,,,,###########################,,,                        '##       
           ' ,,###''''                  '''############,,,                           
         ,,##''                                '''############,,,,        ,,,,,,###''
      ,#''                                            '''#######################'''  
     '                                                          ''''####''''         
             ,#######,   #######,   ,#######,      ##                                
            ,#'     '#,  ##    ##  ,#'     '#,    #''#        ######   ,####,        
            ##       ##  ##   ,#'  ##            #'  '#       #        #'  '#        
            ##       ##  #######   ##           ,######,      #####,   #    #        
            '#,     ,#'  ##    ##  '#,     ,#' ,#      #,         ##   #,  ,#        
             '#######'   ##     ##  '#######'  #'      '#     #####' # '####'        



                  #######################################################
                  #                        -***-                        #
                  #          Department of theory and spectroscopy      #
                  #    Directorship and core code : Frank Neese         #
                  #        Max Planck Institute fuer Kohlenforschung    #
                  #                Kaiser Wilhelm Platz 1               #
                  #                 D-45470 Muelheim/Ruhr               #
                  #                      Germany                        #
                  #                                                     #
                  #                  All rights reserved                #
                  #                        -***-                        #
                  #######################################################


                         Program Version 5.0.1 -  RELEASE  -


 With contributions from (in alphabetic order):
   Daniel Aravena         : Magnetic Suceptibility
   Michael Atanasov       : Ab Initio Ligand Field Theory (pilot matlab implementation)
   Alexander A. Auer      : GIAO ZORA, VPT2 properties, NMR spectrum
   Ute Becker             : Parallelization
   Giovanni Bistoni       : ED, misc. LED, open-shell LED, HFLD
   Martin Brehm           : Molecular dynamics
   Dmytro Bykov           : SCF Hessian
   Vijay G. Chilkuri      : MRCI spin determinant printing, contributions to CSF-ICE
   Dipayan Datta          : RHF DLPNO-CCSD density
   Achintya Kumar Dutta   : EOM-CC, STEOM-CC
   Dmitry Ganyushin       : Spin-Orbit,Spin-Spin,Magnetic field MRCI
   Miquel Garcia          : C-PCM and meta-GGA Hessian, CC/C-PCM, Gaussian charge scheme
   Yang Guo               : DLPNO-NEVPT2, F12-NEVPT2, CIM, IAO-localization
   Andreas Hansen         : Spin unrestricted coupled pair/coupled cluster methods
   Benjamin Helmich-Paris : MC-RPA, TRAH-SCF, COSX integrals
   Lee Huntington         : MR-EOM, pCC
   Robert Izsak           : Overlap fitted RIJCOSX, COSX-SCS-MP3, EOM
   Marcus Kettner         : VPT2
   Christian Kollmar      : KDIIS, OOCD, Brueckner-CCSD(T), CCSD density, CASPT2, CASPT2-K
   Simone Kossmann        : Meta GGA functionals, TD-DFT gradient, OOMP2, MP2 Hessian
   Martin Krupicka        : Initial AUTO-CI
   Lucas Lang             : DCDCAS
   Marvin Lechner         : AUTO-CI (C++ implementation), FIC-MRCC
   Dagmar Lenk            : GEPOL surface, SMD
   Dimitrios Liakos       : Extrapolation schemes; Compound Job, initial MDCI parallelization
   Dimitrios Manganas     : Further ROCIS development; embedding schemes
   Dimitrios Pantazis     : SARC Basis sets
   Anastasios Papadopoulos: AUTO-CI, single reference methods and gradients
   Taras Petrenko         : DFT Hessian,TD-DFT gradient, ASA, ECA, R-Raman, ABS, FL, XAS/XES, NRVS
   Peter Pinski           : DLPNO-MP2, DLPNO-MP2 Gradient
   Christoph Reimann      : Effective Core Potentials
   Marius Retegan         : Local ZFS, SOC
   Christoph Riplinger    : Optimizer, TS searches, QM/MM, DLPNO-CCSD(T), (RO)-DLPNO pert. Triples
   Tobias Risthaus        : Range-separated hybrids, TD-DFT gradient, RPA, STAB
   Michael Roemelt        : Original ROCIS implementation
   Masaaki Saitow         : Open-shell DLPNO-CCSD energy and density
   Barbara Sandhoefer     : DKH picture change effects
   Avijit Sen             : IP-ROCIS
   Kantharuban Sivalingam : CASSCF convergence, NEVPT2, FIC-MRCI
   Bernardo de Souza      : ESD, SOC TD-DFT
   Georgi Stoychev        : AutoAux, RI-MP2 NMR, DLPNO-MP2 response
   Willem Van den Heuvel  : Paramagnetic NMR
   Boris Wezisla          : Elementary symmetry handling
   Frank Wennmohs         : Technical directorship


 We gratefully acknowledge several colleagues who have allowed us to
 interface, adapt or use parts of their codes:
   Stefan Grimme, W. Hujo, H. Kruse, P. Pracht,  : VdW corrections, initial TS optimization,
                  C. Bannwarth, S. Ehlert          DFT functionals, gCP, sTDA/sTD-DF
   Ed Valeev, F. Pavosevic, A. Kumar             : LibInt (2-el integral package), F12 methods
   Garnet Chan, S. Sharma, J. Yang, R. Olivares  : DMRG
   Ulf Ekstrom                                   : XCFun DFT Library
   Mihaly Kallay                                 : mrcc  (arbitrary order and MRCC methods)
   Jiri Pittner, Ondrej Demel                    : Mk-CCSD
   Frank Weinhold                                : gennbo (NPA and NBO analysis)
   Christopher J. Cramer and Donald G. Truhlar   : smd solvation model
   Lars Goerigk                                  : TD-DFT with DH, B97 family of functionals
   V. Asgeirsson, H. Jonsson                     : NEB implementation
   FAccTs GmbH                                   : IRC, NEB, NEB-TS, DLPNO-Multilevel, CI-OPT
                                                   MM, QMMM, 2- and 3-layer-ONIOM, Crystal-QMMM,
                                                   LR-CPCM, SF, NACMEs, symmetry and pop. for TD-DFT,
                                                   nearIR, NL-DFT gradient (VV10), updates on ESD,
                                                   ML-optimized integration grids
   S Lehtola, MJT Oliveira, MAL Marques          : LibXC Library
   Liviu Ungur et al                             : ANISO software


 Your calculation uses the libint2 library for the computation of 2-el integrals
 For citations please refer to: http://libint.valeyev.net

 Your ORCA version has been built with support for libXC version: 5.1.0
 For citations please refer to: https://tddft.org/programs/libxc/

 This ORCA versions uses:
   CBLAS   interface :  Fast vector & matrix operations
   LAPACKE interface :  Fast linear algebra routines
   SCALAPACK package :  Parallel linear algebra routines
   Shared memory     :  Shared parallel matrices
   BLAS/LAPACK       :  OpenBLAS 0.3.15  USE64BITINT DYNAMIC_ARCH NO_AFFINITY Prescott SINGLE_THREADED
        Core in use  :  Prescott
   Copyright (c) 2011-2014, The OpenBLAS Project


Setting NCore(Mg) from 2 to 2
Setting NCore(O ) from 2 to 2
SCAN-COORDS
================================================================================

----- Orbital basis set information -----
Your calculation utilizes the basis: def2-SVP
   F. Weigend and R. Ahlrichs, Phys. Chem. Chem. Phys. 7, 3297 (2005).

The basis set includes element-specific modifications.

Your calculation utilizes the basis: aug-cc-pVTZ 
    H, B-Ne : Obtained from the ccRepo (grant-hill.group.shef.ac.uk/ccrepo) Feb. 2017
              R. A. Kendall, T. H. Dunning, Jr., R. J. Harrison, J. Chem. Phys. 96, 6796 (1992)
         He : Obtained from the ccRepo (grant-hill.group.shef.ac.uk/ccrepo) Feb. 2017
              D. E. Woon, T. H. Dunning, Jr., J. Chem. Phys. 100, 2975 (1994)
  Li-Be, Na : Obtained from the ccRepo (grant-hill.group.shef.ac.uk/ccrepo) Feb. 2017
              B. P. Prascher, D. E. Woon, K. A. Peterson, T. H. Dunning, Jr., A. K. Wilson, Theor. Chem. Acc. 128, 69 (2011)
         Mg : Obtained from the Peterson Research Group Website (tyr0.chem.wsu.edu/~kipeters) Feb. 2017
              B. P. Prascher, D. E. Woon, K. A. Peterson, T. H. Dunning, Jr., A. K. Wilson, Theor. Chem. Acc. 128, 69 (2011)
      Al-Ar : Obtained from the ccRepo (grant-hill.group.shef.ac.uk/ccrepo) Feb. 2017
              D. E. Woon, T. H. Dunning, Jr., J. Chem. Phys. 98, 1358 (1993)
      Sc-Zn : Obtained from the ccRepo (grant-hill.group.shef.ac.uk/ccrepo) Feb. 2017
              N. B. Balabanov, K. A. Peterson, J. Chem. Phys. 123, 064107 (2005)
              N. B. Balabanov, K. A. Peterson, J. Chem. Phys. 125, 074110 (2006)
      Ga-Kr : Obtained from the ccRepo (grant-hill.group.shef.ac.uk/ccrepo) Feb. 2017
              A. K. Wilson, D. E. Woon, K. A. Peterson, T. H. Dunning, Jr., J. Chem. Phys. 110, 7667 (1999)
     Ag, Au : Obtained from the Peterson Research Group Website (tyr0.chem.wsu.edu/~kipeters) Feb. 2017
              K. A. Peterson, C. Puzzarini, Theor. Chem. Acc. 114, 283 (2005)

Your calculation utilizes the basis: cc-pwCVTZ 
             H : cc-pVTZ. Obtained from the ccRepo (grant-hill.group.shef.ac.uk/ccrepo) Feb. 2017
                 T. H. Dunning, Jr., J. Chem. Phys. 90, 1007 (1989)
            He : cc-pVTZ. Obtained from the ccRepo (grant-hill.group.shef.ac.uk/ccrepo) Feb. 2017
                 D. E. Woon, T. H. Dunning, Jr., J. Chem. Phys. 100, 2975 (1994)
  Li-Be, Na-Mg : Obtained from the ccRepo (grant-hill.group.shef.ac.uk/ccrepo) Feb. 2017
                 B. P. Prascher, D. E. Woon, K. A. Peterson, T. H. Dunning, Jr., A. K. Wilson, Theor. Chem. Acc. 128, 69 (2011)
          B-Ne : Obtained from the ccRepo (grant-hill.group.shef.ac.uk/ccrepo) Feb. 2017
                 K. A. Peterson, T. H. Dunning, Jr., J. Chem. Phys. 117, 10548 (2002)
         Al-Ar : Obtained from the EMSL Basis Set Exchange (bse.pnl.gov) Feb. 2017
                 K. A. Peterson, T. H. Dunning, Jr., J. Chem. Phys. 117, 10548 (2002)
            Ca : Obtained from the Peterson Research Group Website (tyr0.chem.wsu.edu/~kipeters) Feb. 2017
                 J. Koput, K. A. Peterson, J. Phys. Chem. 106, 9595 (2002)
         Sc-Zn : Obtained from the ccRepo (grant-hill.group.shef.ac.uk/ccrepo) Feb. 2017
                 N. B. Balabanov, K. A. Peterson, J. Chem. Phys. 123, 064107 (2005)
                 N. B. Balabanov, K. A. Peterson, J. Chem. Phys. 125, 074110 (2006)
         Ga-Kr : Obtained from the Peterson Research Group Website (tyr0.chem.wsu.edu/~kipeters) Feb. 2017
                 K. A. Peterson, K. E. Yousaf, J. Chem. Phys. 133, 174116 (2010)
                 N. J. DeYonker, K. A. Peterson, A. K. Wilson, J. Phys. Chem. A 111, 11383 (2007)
        Ag, Au : Obtained from the Peterson Research Group Website (tyr0.chem.wsu.edu/~kipeters) Feb. 2017
                 K. A. Peterson, C. Puzzarini, Theor. Chem. Acc. 114, 283 (2005)

----- AuxJ basis set information -----
Your calculation utilizes the AutoAux generation procedure.
  G. L. Stoychev, A. A. Auer, F. Neese, J. Chem. Theory Comput. 13, 554 (2017)

----- AuxC basis set information -----
Your calculation utilizes the AutoAux generation procedure.
  G. L. Stoychev, A. A. Auer, F. Neese, J. Chem. Theory Comput. 13, 554 (2017)

================================================================================
                                        WARNINGS
                       Please study these warnings very carefully!
================================================================================


WARNING: Post HF methods need fully converged wavefunctions
  ===> : Setting SCFConvForced true
         You can overwrite this default with %scf ConvForced false 


WARNING: MDCI localization with Augmented Hessian Foster-Boys
  ===> : Switching off randomization!

INFO   : the flag for use of the SHARK integral package has been found!

================================================================================
                                       INPUT FILE
================================================================================
NAME = orca.inp
|  1> ! VeryTightSCF DLPNO-CCSD(T) TightPNO RIJCOSX SlowConv DIIS
|  2> %maxcore 40000
|  3> %pal
|  4> nprocs 12
|  5> end
|  6> %pointcharges "orca.bq"
|  7> %method
|  8> Method hf
|  9> RI on
| 10> RunTyp Energy
| 11> NewNCore Mg 2 end
| 12> NewNCore O 2 end
| 13> end
| 14> %basis
| 15> NewGTO O
| 16> "aug-cc-pVTZ"
| 17> end
| 18> NewGTO Mg
| 19> "cc-pwCVTZ"
| 20> end
| 21> Aux "AutoAux"
| 22> AuxC "AutoAux"
| 23> end
| 24> %scf
| 25> HFTyp rhf
| 26> Guess Hueckel
| 27> AutoStart True
| 28> SCFMode Direct
| 29> MaxIter 1000
| 30> sthresh 1e-6
| 31> AutoTRAHIter 100
| 32> end
| 33> %mdci
| 34>     StorageType Shared
| 35> end
| 36> %coords
| 37> CTyp xyz
| 38> Mult 1
| 39> Units angs
| 40>   Charge -18
| 41>   coords
| 42> O                       0.00000000000    0.00000000000    0.00000000000
| 43> Mg                     -2.10322620878    0.00000373010   -0.04129472389
| 44> Mg                     -0.00000077520    2.10323371923   -0.04127288263
| 45> Mg                      2.10323191950    0.00000373010   -0.04129472389
| 46> Mg                     -0.00000077520   -2.10322440905   -0.04127288263
| 47> Mg                      0.00000550943    0.00000833428   -2.12731743682
| 48> O                      -2.10322913797    2.10323249699   -0.00000184672
| 49> O                       2.10322899032    2.10323249699   -0.00000184672
| 50> O                       2.10322899032   -2.10322563130   -0.00000184672
| 51> O                      -2.10322913797   -2.10322563130   -0.00000184672
| 52> O                      -2.10322637832    0.00000013655   -2.13228003377
| 53> O                       0.00000097398    2.10323217703   -2.13226748721
| 54> O                       2.10323174996    0.00000013655   -2.13228003377
| 55> O                       0.00000097398   -2.10322595126   -2.13226748721
| 56> O                      -4.20645812828    0.00000000000    0.00000000000
| 57> O                       0.00000000000    4.20645812828    0.00000000000
| 58> O                       4.20645812828    0.00000000000    0.00000000000
| 59> O                       0.00000000000   -4.20645812828    0.00000000000
| 60> O                       0.00000732117    0.00000897147   -4.23909984007
| 61> Mg>    2.00000000000   -2.10322347462    2.10323704324   -2.12732261718
| 62> NewECP
| 63>   N_core 0
| 64>   lmax f
| 65>   s 1
| 66>    1      1.732000000   14.676000000 2
| 67>   p 1
| 68>    1      1.115000000    5.175700000 2
| 69>   d 1
| 70>    1      1.203000000   -1.816000000 2
| 71>   f 1
| 72>    1      1.000000000    0.000000000 2
| 73> end
| 74> Mg>    2.00000000000    2.10323465367    2.10323704324   -2.12732261718
| 75> NewECP
| 76>   N_core 0
| 77>   lmax f
| 78>   s 1
| 79>    1      1.732000000   14.676000000 2
| 80>   p 1
| 81>    1      1.115000000    5.175700000 2
| 82>   d 1
| 83>    1      1.203000000   -1.816000000 2
| 84>   f 1
| 85>    1      1.000000000    0.000000000 2
| 86> end
| 87> Mg>    2.00000000000    2.10323465367   -2.10322108505   -2.12732261718
| 88> NewECP
| 89>   N_core 0
| 90>   lmax f
| 91>   s 1
| 92>    1      1.732000000   14.676000000 2
| 93>   p 1
| 94>    1      1.115000000    5.175700000 2
| 95>   d 1
| 96>    1      1.203000000   -1.816000000 2
| 97>   f 1
| 98>    1      1.000000000    0.000000000 2
| 99> end
|100> Mg>    2.00000000000   -2.10322347462   -2.10322108505   -2.12732261718
|101> NewECP
|102>   N_core 0
|103>   lmax f
|104>   s 1
|105>    1      1.732000000   14.676000000 2
|106>   p 1
|107>    1      1.115000000    5.175700000 2
|108>   d 1
|109>    1      1.203000000   -1.816000000 2
|110>   f 1
|111>    1      1.000000000    0.000000000 2
|112> end
|113> Mg>    2.00000000000   -4.20645890349    2.10323371923   -0.04127288263
|114> NewECP
|115>   N_core 0
|116>   lmax f
|117>   s 1
|118>    1      1.732000000   14.676000000 2
|119>   p 1
|120>    1      1.115000000    5.175700000 2
|121>   d 1
|122>    1      1.203000000   -1.816000000 2
|123>   f 1
|124>    1      1.000000000    0.000000000 2
|125> end
|126> Mg>    2.00000000000   -2.10322620878    4.20646185838   -0.04129472389
|127> NewECP
|128>   N_core 0
|129>   lmax f
|130>   s 1
|131>    1      1.732000000   14.676000000 2
|132>   p 1
|133>    1      1.115000000    5.175700000 2
|134>   d 1
|135>    1      1.203000000   -1.816000000 2
|136>   f 1
|137>    1      1.000000000    0.000000000 2
|138> end
|139> Mg>    2.00000000000    2.10323191950    4.20646185838   -0.04129472389
|140> NewECP
|141>   N_core 0
|142>   lmax f
|143>   s 1
|144>    1      1.732000000   14.676000000 2
|145>   p 1
|146>    1      1.115000000    5.175700000 2
|147>   d 1
|148>    1      1.203000000   -1.816000000 2
|149>   f 1
|150>    1      1.000000000    0.000000000 2
|151> end
|152> Mg>    2.00000000000    4.20645735308    2.10323371923   -0.04127288263
|153> NewECP
|154>   N_core 0
|155>   lmax f
|156>   s 1
|157>    1      1.732000000   14.676000000 2
|158>   p 1
|159>    1      1.115000000    5.175700000 2
|160>   d 1
|161>    1      1.203000000   -1.816000000 2
|162>   f 1
|163>    1      1.000000000    0.000000000 2
|164> end
|165> Mg>    2.00000000000    4.20645735308   -2.10322440905   -0.04127288263
|166> NewECP
|167>   N_core 0
|168>   lmax f
|169>   s 1
|170>    1      1.732000000   14.676000000 2
|171>   p 1
|172>    1      1.115000000    5.175700000 2
|173>   d 1
|174>    1      1.203000000   -1.816000000 2
|175>   f 1
|176>    1      1.000000000    0.000000000 2
|177> end
|178> Mg>    2.00000000000    2.10323191950   -4.20645439819   -0.04129472389
|179> NewECP
|180>   N_core 0
|181>   lmax f
|182>   s 1
|183>    1      1.732000000   14.676000000 2
|184>   p 1
|185>    1      1.115000000    5.175700000 2
|186>   d 1
|187>    1      1.203000000   -1.816000000 2
|188>   f 1
|189>    1      1.000000000    0.000000000 2
|190> end
|191> Mg>    2.00000000000   -2.10322620878   -4.20645439819   -0.04129472389
|192> NewECP
|193>   N_core 0
|194>   lmax f
|195>   s 1
|196>    1      1.732000000   14.676000000 2
|197>   p 1
|198>    1      1.115000000    5.175700000 2
|199>   d 1
|200>    1      1.203000000   -1.816000000 2
|201>   f 1
|202>    1      1.000000000    0.000000000 2
|203> end
|204> Mg>    2.00000000000   -4.20645890349   -2.10322440905   -0.04127288263
|205> NewECP
|206>   N_core 0
|207>   lmax f
|208>   s 1
|209>    1      1.732000000   14.676000000 2
|210>   p 1
|211>    1      1.115000000    5.175700000 2
|212>   d 1
|213>    1      1.203000000   -1.816000000 2
|214>   f 1
|215>    1      1.000000000    0.000000000 2
|216> end
|217> Mg>    2.00000000000   -4.20645261886    0.00000833428   -2.12731743682
|218> NewECP
|219>   N_core 0
|220>   lmax f
|221>   s 1
|222>    1      1.732000000   14.676000000 2
|223>   p 1
|224>    1      1.115000000    5.175700000 2
|225>   d 1
|226>    1      1.203000000   -1.816000000 2
|227>   f 1
|228>    1      1.000000000    0.000000000 2
|229> end
|230> Mg>    2.00000000000    0.00000550943    4.20646646256   -2.12731743682
|231> NewECP
|232>   N_core 0
|233>   lmax f
|234>   s 1
|235>    1      1.732000000   14.676000000 2
|236>   p 1
|237>    1      1.115000000    5.175700000 2
|238>   d 1
|239>    1      1.203000000   -1.816000000 2
|240>   f 1
|241>    1      1.000000000    0.000000000 2
|242> end
|243> Mg>    2.00000000000    4.20646363771    0.00000833428   -2.12731743682
|244> NewECP
|245>   N_core 0
|246>   lmax f
|247>   s 1
|248>    1      1.732000000   14.676000000 2
|249>   p 1
|250>    1      1.115000000    5.175700000 2
|251>   d 1
|252>    1      1.203000000   -1.816000000 2
|253>   f 1
|254>    1      1.000000000    0.000000000 2
|255> end
|256> Mg>    2.00000000000    0.00000550943   -4.20644979401   -2.12731743682
|257> NewECP
|258>   N_core 0
|259>   lmax f
|260>   s 1
|261>    1      1.732000000   14.676000000 2
|262>   p 1
|263>    1      1.115000000    5.175700000 2
|264>   d 1
|265>    1      1.203000000   -1.816000000 2
|266>   f 1
|267>    1      1.000000000    0.000000000 2
|268> end
|269> Mg>    2.00000000000   -2.10322174297    0.00000897147   -4.23909984007
|270> NewECP
|271>   N_core 0
|272>   lmax f
|273>   s 1
|274>    1      1.732000000   14.676000000 2
|275>   p 1
|276>    1      1.115000000    5.175700000 2
|277>   d 1
|278>    1      1.203000000   -1.816000000 2
|279>   f 1
|280>    1      1.000000000    0.000000000 2
|281> end
|282> Mg>    2.00000000000    0.00000732117    2.10323803561   -4.23909984007
|283> NewECP
|284>   N_core 0
|285>   lmax f
|286>   s 1
|287>    1      1.732000000   14.676000000 2
|288>   p 1
|289>    1      1.115000000    5.175700000 2
|290>   d 1
|291>    1      1.203000000   -1.816000000 2
|292>   f 1
|293>    1      1.000000000    0.000000000 2
|294> end
|295> Mg>    2.00000000000    2.10323638531    0.00000897147   -4.23909984007
|296> NewECP
|297>   N_core 0
|298>   lmax f
|299>   s 1
|300>    1      1.732000000   14.676000000 2
|301>   p 1
|302>    1      1.115000000    5.175700000 2
|303>   d 1
|304>    1      1.203000000   -1.816000000 2
|305>   f 1
|306>    1      1.000000000    0.000000000 2
|307> end
|308> Mg>    2.00000000000    0.00000732117   -2.10322009268   -4.23909984007
|309> NewECP
|310>   N_core 0
|311>   lmax f
|312>   s 1
|313>    1      1.732000000   14.676000000 2
|314>   p 1
|315>    1      1.115000000    5.175700000 2
|316>   d 1
|317>    1      1.203000000   -1.816000000 2
|318>   f 1
|319>    1      1.000000000    0.000000000 2
|320> end
|321> Mg>    2.00000000000   -6.30968433707    0.00000373010   -0.04129472389
|322> NewECP
|323>   N_core 0
|324>   lmax f
|325>   s 1
|326>    1      1.732000000   14.676000000 2
|327>   p 1
|328>    1      1.115000000    5.175700000 2
|329>   d 1
|330>    1      1.203000000   -1.816000000 2
|331>   f 1
|332>    1      1.000000000    0.000000000 2
|333> end
|334> Mg>    2.00000000000   -0.00000077520    6.30969184751   -0.04127288263
|335> NewECP
|336>   N_core 0
|337>   lmax f
|338>   s 1
|339>    1      1.732000000   14.676000000 2
|340>   p 1
|341>    1      1.115000000    5.175700000 2
|342>   d 1
|343>    1      1.203000000   -1.816000000 2
|344>   f 1
|345>    1      1.000000000    0.000000000 2
|346> end
|347> Mg>    2.00000000000    6.30969004779    0.00000373010   -0.04129472389
|348> NewECP
|349>   N_core 0
|350>   lmax f
|351>   s 1
|352>    1      1.732000000   14.676000000 2
|353>   p 1
|354>    1      1.115000000    5.175700000 2
|355>   d 1
|356>    1      1.203000000   -1.816000000 2
|357>   f 1
|358>    1      1.000000000    0.000000000 2
|359> end
|360> Mg>    2.00000000000   -0.00000077520   -6.30968253734   -0.04127288263
|361> NewECP
|362>   N_core 0
|363>   lmax f
|364>   s 1
|365>    1      1.732000000   14.676000000 2
|366>   p 1
|367>    1      1.115000000    5.175700000 2
|368>   d 1
|369>    1      1.203000000   -1.816000000 2
|370>   f 1
|371>    1      1.000000000    0.000000000 2
|372> end
|373> Mg>    2.00000000000   -4.20645261886    4.20646646256   -2.12731743682
|374> NewECP
|375>   N_core 0
|376>   lmax f
|377>   s 1
|378>    1      1.732000000   14.676000000 2
|379>   p 1
|380>    1      1.115000000    5.175700000 2
|381>   d 1
|382>    1      1.203000000   -1.816000000 2
|383>   f 1
|384>    1      1.000000000    0.000000000 2
|385> end
|386> Mg>    2.00000000000    4.20646363771    4.20646646256   -2.12731743682
|387> NewECP
|388>   N_core 0
|389>   lmax f
|390>   s 1
|391>    1      1.732000000   14.676000000 2
|392>   p 1
|393>    1      1.115000000    5.175700000 2
|394>   d 1
|395>    1      1.203000000   -1.816000000 2
|396>   f 1
|397>    1      1.000000000    0.000000000 2
|398> end
|399> Mg>    2.00000000000    4.20646363771   -4.20644979401   -2.12731743682
|400> NewECP
|401>   N_core 0
|402>   lmax f
|403>   s 1
|404>    1      1.732000000   14.676000000 2
|405>   p 1
|406>    1      1.115000000    5.175700000 2
|407>   d 1
|408>    1      1.203000000   -1.816000000 2
|409>   f 1
|410>    1      1.000000000    0.000000000 2
|411> end
|412> Mg>    2.00000000000   -4.20645261886   -4.20644979401   -2.12731743682
|413> NewECP
|414>   N_core 0
|415>   lmax f
|416>   s 1
|417>    1      1.732000000   14.676000000 2
|418>   p 1
|419>    1      1.115000000    5.175700000 2
|420>   d 1
|421>    1      1.203000000   -1.816000000 2
|422>   f 1
|423>    1      1.000000000    0.000000000 2
|424> end
|425> Mg>    2.00000000000   -4.20645080711    2.10323803561   -4.23909984007
|426> NewECP
|427>   N_core 0
|428>   lmax f
|429>   s 1
|430>    1      1.732000000   14.676000000 2
|431>   p 1
|432>    1      1.115000000    5.175700000 2
|433>   d 1
|434>    1      1.203000000   -1.816000000 2
|435>   f 1
|436>    1      1.000000000    0.000000000 2
|437> end
|438> Mg>    2.00000000000   -2.10322174297    4.20646709975   -4.23909984007
|439> NewECP
|440>   N_core 0
|441>   lmax f
|442>   s 1
|443>    1      1.732000000   14.676000000 2
|444>   p 1
|445>    1      1.115000000    5.175700000 2
|446>   d 1
|447>    1      1.203000000   -1.816000000 2
|448>   f 1
|449>    1      1.000000000    0.000000000 2
|450> end
|451> Mg>    2.00000000000    2.10323638531    4.20646709975   -4.23909984007
|452> NewECP
|453>   N_core 0
|454>   lmax f
|455>   s 1
|456>    1      1.732000000   14.676000000 2
|457>   p 1
|458>    1      1.115000000    5.175700000 2
|459>   d 1
|460>    1      1.203000000   -1.816000000 2
|461>   f 1
|462>    1      1.000000000    0.000000000 2
|463> end
|464> Mg>    2.00000000000    4.20646544946    2.10323803561   -4.23909984007
|465> NewECP
|466>   N_core 0
|467>   lmax f
|468>   s 1
|469>    1      1.732000000   14.676000000 2
|470>   p 1
|471>    1      1.115000000    5.175700000 2
|472>   d 1
|473>    1      1.203000000   -1.816000000 2
|474>   f 1
|475>    1      1.000000000    0.000000000 2
|476> end
|477> Mg>    2.00000000000    4.20646544946   -2.10322009268   -4.23909984007
|478> NewECP
|479>   N_core 0
|480>   lmax f
|481>   s 1
|482>    1      1.732000000   14.676000000 2
|483>   p 1
|484>    1      1.115000000    5.175700000 2
|485>   d 1
|486>    1      1.203000000   -1.816000000 2
|487>   f 1
|488>    1      1.000000000    0.000000000 2
|489> end
|490> Mg>    2.00000000000    2.10323638531   -4.20644915682   -4.23909984007
|491> NewECP
|492>   N_core 0
|493>   lmax f
|494>   s 1
|495>    1      1.732000000   14.676000000 2
|496>   p 1
|497>    1      1.115000000    5.175700000 2
|498>   d 1
|499>    1      1.203000000   -1.816000000 2
|500>   f 1
|501>    1      1.000000000    0.000000000 2
|502> end
|503> Mg>    2.00000000000   -2.10322174297   -4.20644915682   -4.23909984007
|504> NewECP
|505>   N_core 0
|506>   lmax f
|507>   s 1
|508>    1      1.732000000   14.676000000 2
|509>   p 1
|510>    1      1.115000000    5.175700000 2
|511>   d 1
|512>    1      1.203000000   -1.816000000 2
|513>   f 1
|514>    1      1.000000000    0.000000000 2
|515> end
|516> Mg>    2.00000000000   -4.20645080711   -2.10322009268   -4.23909984007
|517> NewECP
|518>   N_core 0
|519>   lmax f
|520>   s 1
|521>    1      1.732000000   14.676000000 2
|522>   p 1
|523>    1      1.115000000    5.175700000 2
|524>   d 1
|525>    1      1.203000000   -1.816000000 2
|526>   f 1
|527>    1      1.000000000    0.000000000 2
|528> end
|529> Mg>    2.00000000000    0.00000732117    0.00000897147   -6.34232890421
|530> NewECP
|531>   N_core 0
|532>   lmax f
|533>   s 1
|534>    1      1.732000000   14.676000000 2
|535>   p 1
|536>    1      1.115000000    5.175700000 2
|537>   d 1
|538>    1      1.203000000   -1.816000000 2
|539>   f 1
|540>    1      1.000000000    0.000000000 2
|541> end
|542> Mg>    2.00000000000   -6.30968160290    2.10323704324   -2.12732261718
|543> NewECP
|544>   N_core 0
|545>   lmax f
|546>   s 1
|547>    1      1.732000000   14.676000000 2
|548>   p 1
|549>    1      1.115000000    5.175700000 2
|550>   d 1
|551>    1      1.203000000   -1.816000000 2
|552>   f 1
|553>    1      1.000000000    0.000000000 2
|554> end
|555> Mg>    2.00000000000   -2.10322347462    6.30969517152   -2.12732261718
|556> NewECP
|557>   N_core 0
|558>   lmax f
|559>   s 1
|560>    1      1.732000000   14.676000000 2
|561>   p 1
|562>    1      1.115000000    5.175700000 2
|563>   d 1
|564>    1      1.203000000   -1.816000000 2
|565>   f 1
|566>    1      1.000000000    0.000000000 2
|567> end
|568> Mg>    2.00000000000    2.10323465367    6.30969517152   -2.12732261718
|569> NewECP
|570>   N_core 0
|571>   lmax f
|572>   s 1
|573>    1      1.732000000   14.676000000 2
|574>   p 1
|575>    1      1.115000000    5.175700000 2
|576>   d 1
|577>    1      1.203000000   -1.816000000 2
|578>   f 1
|579>    1      1.000000000    0.000000000 2
|580> end
|581> Mg>    2.00000000000    6.30969278195    2.10323704324   -2.12732261718
|582> NewECP
|583>   N_core 0
|584>   lmax f
|585>   s 1
|586>    1      1.732000000   14.676000000 2
|587>   p 1
|588>    1      1.115000000    5.175700000 2
|589>   d 1
|590>    1      1.203000000   -1.816000000 2
|591>   f 1
|592>    1      1.000000000    0.000000000 2
|593> end
|594> Mg>    2.00000000000    6.30969278195   -2.10322108505   -2.12732261718
|595> NewECP
|596>   N_core 0
|597>   lmax f
|598>   s 1
|599>    1      1.732000000   14.676000000 2
|600>   p 1
|601>    1      1.115000000    5.175700000 2
|602>   d 1
|603>    1      1.203000000   -1.816000000 2
|604>   f 1
|605>    1      1.000000000    0.000000000 2
|606> end
|607> Mg>    2.00000000000    2.10323465367   -6.30967921333   -2.12732261718
|608> NewECP
|609>   N_core 0
|610>   lmax f
|611>   s 1
|612>    1      1.732000000   14.676000000 2
|613>   p 1
|614>    1      1.115000000    5.175700000 2
|615>   d 1
|616>    1      1.203000000   -1.816000000 2
|617>   f 1
|618>    1      1.000000000    0.000000000 2
|619> end
|620> Mg>    2.00000000000   -2.10322347462   -6.30967921333   -2.12732261718
|621> NewECP
|622>   N_core 0
|623>   lmax f
|624>   s 1
|625>    1      1.732000000   14.676000000 2
|626>   p 1
|627>    1      1.115000000    5.175700000 2
|628>   d 1
|629>    1      1.203000000   -1.816000000 2
|630>   f 1
|631>    1      1.000000000    0.000000000 2
|632> end
|633> Mg>    2.00000000000   -6.30968160290   -2.10322108505   -2.12732261718
|634> NewECP
|635>   N_core 0
|636>   lmax f
|637>   s 1
|638>    1      1.732000000   14.676000000 2
|639>   p 1
|640>    1      1.115000000    5.175700000 2
|641>   d 1
|642>    1      1.203000000   -1.816000000 2
|643>   f 1
|644>    1      1.000000000    0.000000000 2
|645> end
|646> Mg>    2.00000000000   -2.10322174297    2.10323803561   -6.34232890421
|647> NewECP
|648>   N_core 0
|649>   lmax f
|650>   s 1
|651>    1      1.732000000   14.676000000 2
|652>   p 1
|653>    1      1.115000000    5.175700000 2
|654>   d 1
|655>    1      1.203000000   -1.816000000 2
|656>   f 1
|657>    1      1.000000000    0.000000000 2
|658> end
|659> Mg>    2.00000000000    2.10323638531    2.10323803561   -6.34232890421
|660> NewECP
|661>   N_core 0
|662>   lmax f
|663>   s 1
|664>    1      1.732000000   14.676000000 2
|665>   p 1
|666>    1      1.115000000    5.175700000 2
|667>   d 1
|668>    1      1.203000000   -1.816000000 2
|669>   f 1
|670>    1      1.000000000    0.000000000 2
|671> end
|672> Mg>    2.00000000000    2.10323638531   -2.10322009268   -6.34232890421
|673> NewECP
|674>   N_core 0
|675>   lmax f
|676>   s 1
|677>    1      1.732000000   14.676000000 2
|678>   p 1
|679>    1      1.115000000    5.175700000 2
|680>   d 1
|681>    1      1.203000000   -1.816000000 2
|682>   f 1
|683>    1      1.000000000    0.000000000 2
|684> end
|685> Mg>    2.00000000000   -2.10322174297   -2.10322009268   -6.34232890421
|686> NewECP
|687>   N_core 0
|688>   lmax f
|689>   s 1
|690>    1      1.732000000   14.676000000 2
|691>   p 1
|692>    1      1.115000000    5.175700000 2
|693>   d 1
|694>    1      1.203000000   -1.816000000 2
|695>   f 1
|696>    1      1.000000000    0.000000000 2
|697> end
|698> Mg>    2.00000000000   -6.30968433707    4.20646185838   -0.04129472389
|699> NewECP
|700>   N_core 0
|701>   lmax f
|702>   s 1
|703>    1      1.732000000   14.676000000 2
|704>   p 1
|705>    1      1.115000000    5.175700000 2
|706>   d 1
|707>    1      1.203000000   -1.816000000 2
|708>   f 1
|709>    1      1.000000000    0.000000000 2
|710> end
|711> Mg>    2.00000000000   -4.20645890349    6.30969184751   -0.04127288263
|712> NewECP
|713>   N_core 0
|714>   lmax f
|715>   s 1
|716>    1      1.732000000   14.676000000 2
|717>   p 1
|718>    1      1.115000000    5.175700000 2
|719>   d 1
|720>    1      1.203000000   -1.816000000 2
|721>   f 1
|722>    1      1.000000000    0.000000000 2
|723> end
|724> Mg>    2.00000000000    4.20645735308    6.30969184751   -0.04127288263
|725> NewECP
|726>   N_core 0
|727>   lmax f
|728>   s 1
|729>    1      1.732000000   14.676000000 2
|730>   p 1
|731>    1      1.115000000    5.175700000 2
|732>   d 1
|733>    1      1.203000000   -1.816000000 2
|734>   f 1
|735>    1      1.000000000    0.000000000 2
|736> end
|737> Mg>    2.00000000000    6.30969004779    4.20646185838   -0.04129472389
|738> NewECP
|739>   N_core 0
|740>   lmax f
|741>   s 1
|742>    1      1.732000000   14.676000000 2
|743>   p 1
|744>    1      1.115000000    5.175700000 2
|745>   d 1
|746>    1      1.203000000   -1.816000000 2
|747>   f 1
|748>    1      1.000000000    0.000000000 2
|749> end
|750> Mg>    2.00000000000    6.30969004779   -4.20645439819   -0.04129472389
|751> NewECP
|752>   N_core 0
|753>   lmax f
|754>   s 1
|755>    1      1.732000000   14.676000000 2
|756>   p 1
|757>    1      1.115000000    5.175700000 2
|758>   d 1
|759>    1      1.203000000   -1.816000000 2
|760>   f 1
|761>    1      1.000000000    0.000000000 2
|762> end
|763> Mg>    2.00000000000    4.20645735308   -6.30968253734   -0.04127288263
|764> NewECP
|765>   N_core 0
|766>   lmax f
|767>   s 1
|768>    1      1.732000000   14.676000000 2
|769>   p 1
|770>    1      1.115000000    5.175700000 2
|771>   d 1
|772>    1      1.203000000   -1.816000000 2
|773>   f 1
|774>    1      1.000000000    0.000000000 2
|775> end
|776> Mg>    2.00000000000   -4.20645890349   -6.30968253734   -0.04127288263
|777> NewECP
|778>   N_core 0
|779>   lmax f
|780>   s 1
|781>    1      1.732000000   14.676000000 2
|782>   p 1
|783>    1      1.115000000    5.175700000 2
|784>   d 1
|785>    1      1.203000000   -1.816000000 2
|786>   f 1
|787>    1      1.000000000    0.000000000 2
|788> end
|789> Mg>    2.00000000000   -6.30968433707   -4.20645439819   -0.04129472389
|790> NewECP
|791>   N_core 0
|792>   lmax f
|793>   s 1
|794>    1      1.732000000   14.676000000 2
|795>   p 1
|796>    1      1.115000000    5.175700000 2
|797>   d 1
|798>    1      1.203000000   -1.816000000 2
|799>   f 1
|800>    1      1.000000000    0.000000000 2
|801> end
|802> Mg>    2.00000000000   -6.30967987125    0.00000897147   -4.23909984007
|803> NewECP
|804>   N_core 0
|805>   lmax f
|806>   s 1
|807>    1      1.732000000   14.676000000 2
|808>   p 1
|809>    1      1.115000000    5.175700000 2
|810>   d 1
|811>    1      1.203000000   -1.816000000 2
|812>   f 1
|813>    1      1.000000000    0.000000000 2
|814> end
|815> Mg>    2.00000000000    0.00000732117    6.30969616389   -4.23909984007
|816> NewECP
|817>   N_core 0
|818>   lmax f
|819>   s 1
|820>    1      1.732000000   14.676000000 2
|821>   p 1
|822>    1      1.115000000    5.175700000 2
|823>   d 1
|824>    1      1.203000000   -1.816000000 2
|825>   f 1
|826>    1      1.000000000    0.000000000 2
|827> end
|828> Mg>    2.00000000000    6.30969451360    0.00000897147   -4.23909984007
|829> NewECP
|830>   N_core 0
|831>   lmax f
|832>   s 1
|833>    1      1.732000000   14.676000000 2
|834>   p 1
|835>    1      1.115000000    5.175700000 2
|836>   d 1
|837>    1      1.203000000   -1.816000000 2
|838>   f 1
|839>    1      1.000000000    0.000000000 2
|840> end
|841> Mg>    2.00000000000    0.00000732117   -6.30967822096   -4.23909984007
|842> NewECP
|843>   N_core 0
|844>   lmax f
|845>   s 1
|846>    1      1.732000000   14.676000000 2
|847>   p 1
|848>    1      1.115000000    5.175700000 2
|849>   d 1
|850>    1      1.203000000   -1.816000000 2
|851>   f 1
|852>    1      1.000000000    0.000000000 2
|853> end
|854> Mg>    2.00000000000   -4.20645080711    0.00000897147   -6.34232890421
|855> NewECP
|856>   N_core 0
|857>   lmax f
|858>   s 1
|859>    1      1.732000000   14.676000000 2
|860>   p 1
|861>    1      1.115000000    5.175700000 2
|862>   d 1
|863>    1      1.203000000   -1.816000000 2
|864>   f 1
|865>    1      1.000000000    0.000000000 2
|866> end
|867> Mg>    2.00000000000    0.00000732117    4.20646709975   -6.34232890421
|868> NewECP
|869>   N_core 0
|870>   lmax f
|871>   s 1
|872>    1      1.732000000   14.676000000 2
|873>   p 1
|874>    1      1.115000000    5.175700000 2
|875>   d 1
|876>    1      1.203000000   -1.816000000 2
|877>   f 1
|878>    1      1.000000000    0.000000000 2
|879> end
|880> Mg>    2.00000000000    4.20646544946    0.00000897147   -6.34232890421
|881> NewECP
|882>   N_core 0
|883>   lmax f
|884>   s 1
|885>    1      1.732000000   14.676000000 2
|886>   p 1
|887>    1      1.115000000    5.175700000 2
|888>   d 1
|889>    1      1.203000000   -1.816000000 2
|890>   f 1
|891>    1      1.000000000    0.000000000 2
|892> end
|893> Mg>    2.00000000000    0.00000732117   -4.20644915682   -6.34232890421
|894> NewECP
|895>   N_core 0
|896>   lmax f
|897>   s 1
|898>    1      1.732000000   14.676000000 2
|899>   p 1
|900>    1      1.115000000    5.175700000 2
|901>   d 1
|902>    1      1.203000000   -1.816000000 2
|903>   f 1
|904>    1      1.000000000    0.000000000 2
|905> end
|906> Mg>    2.00000000000   -8.41291703177    2.10323371923   -0.04127288263
|907> NewECP
|908>   N_core 0
|909>   lmax f
|910>   s 1
|911>    1      1.732000000   14.676000000 2
|912>   p 1
|913>    1      1.115000000    5.175700000 2
|914>   d 1
|915>    1      1.203000000   -1.816000000 2
|916>   f 1
|917>    1      1.000000000    0.000000000 2
|918> end
|919> Mg>    2.00000000000   -2.10322620878    8.41291998667   -0.04129472389
|920> NewECP
|921>   N_core 0
|922>   lmax f
|923>   s 1
|924>    1      1.732000000   14.676000000 2
|925>   p 1
|926>    1      1.115000000    5.175700000 2
|927>   d 1
|928>    1      1.203000000   -1.816000000 2
|929>   f 1
|930>    1      1.000000000    0.000000000 2
|931> end
|932> Mg>    2.00000000000    2.10323191950    8.41291998667   -0.04129472389
|933> NewECP
|934>   N_core 0
|935>   lmax f
|936>   s 1
|937>    1      1.732000000   14.676000000 2
|938>   p 1
|939>    1      1.115000000    5.175700000 2
|940>   d 1
|941>    1      1.203000000   -1.816000000 2
|942>   f 1
|943>    1      1.000000000    0.000000000 2
|944> end
|945> Mg>    2.00000000000    8.41291548137    2.10323371923   -0.04127288263
|946> NewECP
|947>   N_core 0
|948>   lmax f
|949>   s 1
|950>    1      1.732000000   14.676000000 2
|951>   p 1
|952>    1      1.115000000    5.175700000 2
|953>   d 1
|954>    1      1.203000000   -1.816000000 2
|955>   f 1
|956>    1      1.000000000    0.000000000 2
|957> end
|958> Mg>    2.00000000000    8.41291548137   -2.10322440905   -0.04127288263
|959> NewECP
|960>   N_core 0
|961>   lmax f
|962>   s 1
|963>    1      1.732000000   14.676000000 2
|964>   p 1
|965>    1      1.115000000    5.175700000 2
|966>   d 1
|967>    1      1.203000000   -1.816000000 2
|968>   f 1
|969>    1      1.000000000    0.000000000 2
|970> end
|971> Mg>    2.00000000000    2.10323191950   -8.41291252647   -0.04129472389
|972> NewECP
|973>   N_core 0
|974>   lmax f
|975>   s 1
|976>    1      1.732000000   14.676000000 2
|977>   p 1
|978>    1      1.115000000    5.175700000 2
|979>   d 1
|980>    1      1.203000000   -1.816000000 2
|981>   f 1
|982>    1      1.000000000    0.000000000 2
|983> end
|984> Mg>    2.00000000000   -2.10322620878   -8.41291252647   -0.04129472389
|985> NewECP
|986>   N_core 0
|987>   lmax f
|988>   s 1
|989>    1      1.732000000   14.676000000 2
|990>   p 1
|991>    1      1.115000000    5.175700000 2
|992>   d 1
|993>    1      1.203000000   -1.816000000 2
|994>   f 1
|995>    1      1.000000000    0.000000000 2
|996> end
|997> Mg>    2.00000000000   -8.41291703177   -2.10322440905   -0.04127288263
|998> NewECP
|999>   N_core 0
|1000>   lmax f
|1001>   s 1
|1002>    1      1.732000000   14.676000000 2
|1003>   p 1
|1004>    1      1.115000000    5.175700000 2
|1005>   d 1
|1006>    1      1.203000000   -1.816000000 2
|1007>   f 1
|1008>    1      1.000000000    0.000000000 2
|1009> end
|1010> Mg>    2.00000000000   -8.41291074714    0.00000833428   -2.12731743682
|1011> NewECP
|1012>   N_core 0
|1013>   lmax f
|1014>   s 1
|1015>    1      1.732000000   14.676000000 2
|1016>   p 1
|1017>    1      1.115000000    5.175700000 2
|1018>   d 1
|1019>    1      1.203000000   -1.816000000 2
|1020>   f 1
|1021>    1      1.000000000    0.000000000 2
|1022> end
|1023> Mg>    2.00000000000    0.00000550943    8.41292459085   -2.12731743682
|1024> NewECP
|1025>   N_core 0
|1026>   lmax f
|1027>   s 1
|1028>    1      1.732000000   14.676000000 2
|1029>   p 1
|1030>    1      1.115000000    5.175700000 2
|1031>   d 1
|1032>    1      1.203000000   -1.816000000 2
|1033>   f 1
|1034>    1      1.000000000    0.000000000 2
|1035> end
|1036> Mg>    2.00000000000    8.41292176600    0.00000833428   -2.12731743682
|1037> NewECP
|1038>   N_core 0
|1039>   lmax f
|1040>   s 1
|1041>    1      1.732000000   14.676000000 2
|1042>   p 1
|1043>    1      1.115000000    5.175700000 2
|1044>   d 1
|1045>    1      1.203000000   -1.816000000 2
|1046>   f 1
|1047>    1      1.000000000    0.000000000 2
|1048> end
|1049> Mg>    2.00000000000    0.00000550943   -8.41290792229   -2.12731743682
|1050> NewECP
|1051>   N_core 0
|1052>   lmax f
|1053>   s 1
|1054>    1      1.732000000   14.676000000 2
|1055>   p 1
|1056>    1      1.115000000    5.175700000 2
|1057>   d 1
|1058>    1      1.203000000   -1.816000000 2
|1059>   f 1
|1060>    1      1.000000000    0.000000000 2
|1061> end
|1062> Mg>    2.00000000000   -6.30967987125    4.20646709975   -4.23909984007
|1063> NewECP
|1064>   N_core 0
|1065>   lmax f
|1066>   s 1
|1067>    1      1.732000000   14.676000000 2
|1068>   p 1
|1069>    1      1.115000000    5.175700000 2
|1070>   d 1
|1071>    1      1.203000000   -1.816000000 2
|1072>   f 1
|1073>    1      1.000000000    0.000000000 2
|1074> end
|1075> Mg>    2.00000000000   -4.20645080711    6.30969616389   -4.23909984007
|1076> NewECP
|1077>   N_core 0
|1078>   lmax f
|1079>   s 1
|1080>    1      1.732000000   14.676000000 2
|1081>   p 1
|1082>    1      1.115000000    5.175700000 2
|1083>   d 1
|1084>    1      1.203000000   -1.816000000 2
|1085>   f 1
|1086>    1      1.000000000    0.000000000 2
|1087> end
|1088> Mg>    2.00000000000    4.20646544946    6.30969616389   -4.23909984007
|1089> NewECP
|1090>   N_core 0
|1091>   lmax f
|1092>   s 1
|1093>    1      1.732000000   14.676000000 2
|1094>   p 1
|1095>    1      1.115000000    5.175700000 2
|1096>   d 1
|1097>    1      1.203000000   -1.816000000 2
|1098>   f 1
|1099>    1      1.000000000    0.000000000 2
|1100> end
|1101> Mg>    2.00000000000    6.30969451360    4.20646709975   -4.23909984007
|1102> NewECP
|1103>   N_core 0
|1104>   lmax f
|1105>   s 1
|1106>    1      1.732000000   14.676000000 2
|1107>   p 1
|1108>    1      1.115000000    5.175700000 2
|1109>   d 1
|1110>    1      1.203000000   -1.816000000 2
|1111>   f 1
|1112>    1      1.000000000    0.000000000 2
|1113> end
|1114> Mg>    2.00000000000    6.30969451360   -4.20644915682   -4.23909984007
|1115> NewECP
|1116>   N_core 0
|1117>   lmax f
|1118>   s 1
|1119>    1      1.732000000   14.676000000 2
|1120>   p 1
|1121>    1      1.115000000    5.175700000 2
|1122>   d 1
|1123>    1      1.203000000   -1.816000000 2
|1124>   f 1
|1125>    1      1.000000000    0.000000000 2
|1126> end
|1127> Mg>    2.00000000000    4.20646544946   -6.30967822096   -4.23909984007
|1128> NewECP
|1129>   N_core 0
|1130>   lmax f
|1131>   s 1
|1132>    1      1.732000000   14.676000000 2
|1133>   p 1
|1134>    1      1.115000000    5.175700000 2
|1135>   d 1
|1136>    1      1.203000000   -1.816000000 2
|1137>   f 1
|1138>    1      1.000000000    0.000000000 2
|1139> end
|1140> Mg>    2.00000000000   -4.20645080711   -6.30967822096   -4.23909984007
|1141> NewECP
|1142>   N_core 0
|1143>   lmax f
|1144>   s 1
|1145>    1      1.732000000   14.676000000 2
|1146>   p 1
|1147>    1      1.115000000    5.175700000 2
|1148>   d 1
|1149>    1      1.203000000   -1.816000000 2
|1150>   f 1
|1151>    1      1.000000000    0.000000000 2
|1152> end
|1153> Mg>    2.00000000000   -6.30967987125   -4.20644915682   -4.23909984007
|1154> NewECP
|1155>   N_core 0
|1156>   lmax f
|1157>   s 1
|1158>    1      1.732000000   14.676000000 2
|1159>   p 1
|1160>    1      1.115000000    5.175700000 2
|1161>   d 1
|1162>    1      1.203000000   -1.816000000 2
|1163>   f 1
|1164>    1      1.000000000    0.000000000 2
|1165> end
|1166> Mg>    2.00000000000   -4.20645080711    4.20646709975   -6.34232890421
|1167> NewECP
|1168>   N_core 0
|1169>   lmax f
|1170>   s 1
|1171>    1      1.732000000   14.676000000 2
|1172>   p 1
|1173>    1      1.115000000    5.175700000 2
|1174>   d 1
|1175>    1      1.203000000   -1.816000000 2
|1176>   f 1
|1177>    1      1.000000000    0.000000000 2
|1178> end
|1179> Mg>    2.00000000000    4.20646544946    4.20646709975   -6.34232890421
|1180> NewECP
|1181>   N_core 0
|1182>   lmax f
|1183>   s 1
|1184>    1      1.732000000   14.676000000 2
|1185>   p 1
|1186>    1      1.115000000    5.175700000 2
|1187>   d 1
|1188>    1      1.203000000   -1.816000000 2
|1189>   f 1
|1190>    1      1.000000000    0.000000000 2
|1191> end
|1192> Mg>    2.00000000000    4.20646544946   -4.20644915682   -6.34232890421
|1193> NewECP
|1194>   N_core 0
|1195>   lmax f
|1196>   s 1
|1197>    1      1.732000000   14.676000000 2
|1198>   p 1
|1199>    1      1.115000000    5.175700000 2
|1200>   d 1
|1201>    1      1.203000000   -1.816000000 2
|1202>   f 1
|1203>    1      1.000000000    0.000000000 2
|1204> end
|1205> Mg>    2.00000000000   -4.20645080711   -4.20644915682   -6.34232890421
|1206> NewECP
|1207>   N_core 0
|1208>   lmax f
|1209>   s 1
|1210>    1      1.732000000   14.676000000 2
|1211>   p 1
|1212>    1      1.115000000    5.175700000 2
|1213>   d 1
|1214>    1      1.203000000   -1.816000000 2
|1215>   f 1
|1216>    1      1.000000000    0.000000000 2
|1217> end
|1218> Mg>    2.00000000000   -2.10322174297    0.00000897147   -8.44555796836
|1219> NewECP
|1220>   N_core 0
|1221>   lmax f
|1222>   s 1
|1223>    1      1.732000000   14.676000000 2
|1224>   p 1
|1225>    1      1.115000000    5.175700000 2
|1226>   d 1
|1227>    1      1.203000000   -1.816000000 2
|1228>   f 1
|1229>    1      1.000000000    0.000000000 2
|1230> end
|1231> Mg>    2.00000000000    0.00000732117    2.10323803561   -8.44555796836
|1232> NewECP
|1233>   N_core 0
|1234>   lmax f
|1235>   s 1
|1236>    1      1.732000000   14.676000000 2
|1237>   p 1
|1238>    1      1.115000000    5.175700000 2
|1239>   d 1
|1240>    1      1.203000000   -1.816000000 2
|1241>   f 1
|1242>    1      1.000000000    0.000000000 2
|1243> end
|1244> Mg>    2.00000000000    2.10323638531    0.00000897147   -8.44555796836
|1245> NewECP
|1246>   N_core 0
|1247>   lmax f
|1248>   s 1
|1249>    1      1.732000000   14.676000000 2
|1250>   p 1
|1251>    1      1.115000000    5.175700000 2
|1252>   d 1
|1253>    1      1.203000000   -1.816000000 2
|1254>   f 1
|1255>    1      1.000000000    0.000000000 2
|1256> end
|1257> Mg>    2.00000000000    0.00000732117   -2.10322009268   -8.44555796836
|1258> NewECP
|1259>   N_core 0
|1260>   lmax f
|1261>   s 1
|1262>    1      1.732000000   14.676000000 2
|1263>   p 1
|1264>    1      1.115000000    5.175700000 2
|1265>   d 1
|1266>    1      1.203000000   -1.816000000 2
|1267>   f 1
|1268>    1      1.000000000    0.000000000 2
|1269> end
|1270> Mg>    2.00000000000   -6.30968160290    6.30969517152   -2.12732261718
|1271> NewECP
|1272>   N_core 0
|1273>   lmax f
|1274>   s 1
|1275>    1      1.732000000   14.676000000 2
|1276>   p 1
|1277>    1      1.115000000    5.175700000 2
|1278>   d 1
|1279>    1      1.203000000   -1.816000000 2
|1280>   f 1
|1281>    1      1.000000000    0.000000000 2
|1282> end
|1283> Mg>    2.00000000000    6.30969278195    6.30969517152   -2.12732261718
|1284> NewECP
|1285>   N_core 0
|1286>   lmax f
|1287>   s 1
|1288>    1      1.732000000   14.676000000 2
|1289>   p 1
|1290>    1      1.115000000    5.175700000 2
|1291>   d 1
|1292>    1      1.203000000   -1.816000000 2
|1293>   f 1
|1294>    1      1.000000000    0.000000000 2
|1295> end
|1296> Mg>    2.00000000000    6.30969278195   -6.30967921333   -2.12732261718
|1297> NewECP
|1298>   N_core 0
|1299>   lmax f
|1300>   s 1
|1301>    1      1.732000000   14.676000000 2
|1302>   p 1
|1303>    1      1.115000000    5.175700000 2
|1304>   d 1
|1305>    1      1.203000000   -1.816000000 2
|1306>   f 1
|1307>    1      1.000000000    0.000000000 2
|1308> end
|1309> Mg>    2.00000000000   -6.30968160290   -6.30967921333   -2.12732261718
|1310> NewECP
|1311>   N_core 0
|1312>   lmax f
|1313>   s 1
|1314>    1      1.732000000   14.676000000 2
|1315>   p 1
|1316>    1      1.115000000    5.175700000 2
|1317>   d 1
|1318>    1      1.203000000   -1.816000000 2
|1319>   f 1
|1320>    1      1.000000000    0.000000000 2
|1321> end
|1322> Mg>    2.00000000000   -6.30967987125    2.10323803561   -6.34232890421
|1323> NewECP
|1324>   N_core 0
|1325>   lmax f
|1326>   s 1
|1327>    1      1.732000000   14.676000000 2
|1328>   p 1
|1329>    1      1.115000000    5.175700000 2
|1330>   d 1
|1331>    1      1.203000000   -1.816000000 2
|1332>   f 1
|1333>    1      1.000000000    0.000000000 2
|1334> end
|1335> Mg>    2.00000000000   -2.10322174297    6.30969616389   -6.34232890421
|1336> NewECP
|1337>   N_core 0
|1338>   lmax f
|1339>   s 1
|1340>    1      1.732000000   14.676000000 2
|1341>   p 1
|1342>    1      1.115000000    5.175700000 2
|1343>   d 1
|1344>    1      1.203000000   -1.816000000 2
|1345>   f 1
|1346>    1      1.000000000    0.000000000 2
|1347> end
|1348> Mg>    2.00000000000    2.10323638531    6.30969616389   -6.34232890421
|1349> NewECP
|1350>   N_core 0
|1351>   lmax f
|1352>   s 1
|1353>    1      1.732000000   14.676000000 2
|1354>   p 1
|1355>    1      1.115000000    5.175700000 2
|1356>   d 1
|1357>    1      1.203000000   -1.816000000 2
|1358>   f 1
|1359>    1      1.000000000    0.000000000 2
|1360> end
|1361> Mg>    2.00000000000    6.30969451360    2.10323803561   -6.34232890421
|1362> NewECP
|1363>   N_core 0
|1364>   lmax f
|1365>   s 1
|1366>    1      1.732000000   14.676000000 2
|1367>   p 1
|1368>    1      1.115000000    5.175700000 2
|1369>   d 1
|1370>    1      1.203000000   -1.816000000 2
|1371>   f 1
|1372>    1      1.000000000    0.000000000 2
|1373> end
|1374> Mg>    2.00000000000    6.30969451360   -2.10322009268   -6.34232890421
|1375> NewECP
|1376>   N_core 0
|1377>   lmax f
|1378>   s 1
|1379>    1      1.732000000   14.676000000 2
|1380>   p 1
|1381>    1      1.115000000    5.175700000 2
|1382>   d 1
|1383>    1      1.203000000   -1.816000000 2
|1384>   f 1
|1385>    1      1.000000000    0.000000000 2
|1386> end
|1387> Mg>    2.00000000000    2.10323638531   -6.30967822096   -6.34232890421
|1388> NewECP
|1389>   N_core 0
|1390>   lmax f
|1391>   s 1
|1392>    1      1.732000000   14.676000000 2
|1393>   p 1
|1394>    1      1.115000000    5.175700000 2
|1395>   d 1
|1396>    1      1.203000000   -1.816000000 2
|1397>   f 1
|1398>    1      1.000000000    0.000000000 2
|1399> end
|1400> Mg>    2.00000000000   -2.10322174297   -6.30967822096   -6.34232890421
|1401> NewECP
|1402>   N_core 0
|1403>   lmax f
|1404>   s 1
|1405>    1      1.732000000   14.676000000 2
|1406>   p 1
|1407>    1      1.115000000    5.175700000 2
|1408>   d 1
|1409>    1      1.203000000   -1.816000000 2
|1410>   f 1
|1411>    1      1.000000000    0.000000000 2
|1412> end
|1413> Mg>    2.00000000000   -6.30967987125   -2.10322009268   -6.34232890421
|1414> NewECP
|1415>   N_core 0
|1416>   lmax f
|1417>   s 1
|1418>    1      1.732000000   14.676000000 2
|1419>   p 1
|1420>    1      1.115000000    5.175700000 2
|1421>   d 1
|1422>    1      1.203000000   -1.816000000 2
|1423>   f 1
|1424>    1      1.000000000    0.000000000 2
|1425> end
|1426> Mg>    2.00000000000   -8.41291074714    4.20646646256   -2.12731743682
|1427> NewECP
|1428>   N_core 0
|1429>   lmax f
|1430>   s 1
|1431>    1      1.732000000   14.676000000 2
|1432>   p 1
|1433>    1      1.115000000    5.175700000 2
|1434>   d 1
|1435>    1      1.203000000   -1.816000000 2
|1436>   f 1
|1437>    1      1.000000000    0.000000000 2
|1438> end
|1439> Mg>    2.00000000000   -4.20645261886    8.41292459085   -2.12731743682
|1440> NewECP
|1441>   N_core 0
|1442>   lmax f
|1443>   s 1
|1444>    1      1.732000000   14.676000000 2
|1445>   p 1
|1446>    1      1.115000000    5.175700000 2
|1447>   d 1
|1448>    1      1.203000000   -1.816000000 2
|1449>   f 1
|1450>    1      1.000000000    0.000000000 2
|1451> end
|1452> Mg>    2.00000000000    4.20646363771    8.41292459085   -2.12731743682
|1453> NewECP
|1454>   N_core 0
|1455>   lmax f
|1456>   s 1
|1457>    1      1.732000000   14.676000000 2
|1458>   p 1
|1459>    1      1.115000000    5.175700000 2
|1460>   d 1
|1461>    1      1.203000000   -1.816000000 2
|1462>   f 1
|1463>    1      1.000000000    0.000000000 2
|1464> end
|1465> Mg>    2.00000000000    8.41292176600    4.20646646256   -2.12731743682
|1466> NewECP
|1467>   N_core 0
|1468>   lmax f
|1469>   s 1
|1470>    1      1.732000000   14.676000000 2
|1471>   p 1
|1472>    1      1.115000000    5.175700000 2
|1473>   d 1
|1474>    1      1.203000000   -1.816000000 2
|1475>   f 1
|1476>    1      1.000000000    0.000000000 2
|1477> end
|1478> Mg>    2.00000000000    8.41292176600   -4.20644979401   -2.12731743682
|1479> NewECP
|1480>   N_core 0
|1481>   lmax f
|1482>   s 1
|1483>    1      1.732000000   14.676000000 2
|1484>   p 1
|1485>    1      1.115000000    5.175700000 2
|1486>   d 1
|1487>    1      1.203000000   -1.816000000 2
|1488>   f 1
|1489>    1      1.000000000    0.000000000 2
|1490> end
|1491> Mg>    2.00000000000    4.20646363771   -8.41290792229   -2.12731743682
|1492> NewECP
|1493>   N_core 0
|1494>   lmax f
|1495>   s 1
|1496>    1      1.732000000   14.676000000 2
|1497>   p 1
|1498>    1      1.115000000    5.175700000 2
|1499>   d 1
|1500>    1      1.203000000   -1.816000000 2
|1501>   f 1
|1502>    1      1.000000000    0.000000000 2
|1503> end
|1504> Mg>    2.00000000000   -4.20645261886   -8.41290792229   -2.12731743682
|1505> NewECP
|1506>   N_core 0
|1507>   lmax f
|1508>   s 1
|1509>    1      1.732000000   14.676000000 2
|1510>   p 1
|1511>    1      1.115000000    5.175700000 2
|1512>   d 1
|1513>    1      1.203000000   -1.816000000 2
|1514>   f 1
|1515>    1      1.000000000    0.000000000 2
|1516> end
|1517> Mg>    2.00000000000   -8.41291074714   -4.20644979401   -2.12731743682
|1518> NewECP
|1519>   N_core 0
|1520>   lmax f
|1521>   s 1
|1522>    1      1.732000000   14.676000000 2
|1523>   p 1
|1524>    1      1.115000000    5.175700000 2
|1525>   d 1
|1526>    1      1.203000000   -1.816000000 2
|1527>   f 1
|1528>    1      1.000000000    0.000000000 2
|1529> end
|1530> Mg>    2.00000000000   -8.41290893540    2.10323803561   -4.23909984007
|1531> NewECP
|1532>   N_core 0
|1533>   lmax f
|1534>   s 1
|1535>    1      1.732000000   14.676000000 2
|1536>   p 1
|1537>    1      1.115000000    5.175700000 2
|1538>   d 1
|1539>    1      1.203000000   -1.816000000 2
|1540>   f 1
|1541>    1      1.000000000    0.000000000 2
|1542> end
|1543> Mg>    2.00000000000   -2.10322174297    8.41292522803   -4.23909984007
|1544> NewECP
|1545>   N_core 0
|1546>   lmax f
|1547>   s 1
|1548>    1      1.732000000   14.676000000 2
|1549>   p 1
|1550>    1      1.115000000    5.175700000 2
|1551>   d 1
|1552>    1      1.203000000   -1.816000000 2
|1553>   f 1
|1554>    1      1.000000000    0.000000000 2
|1555> end
|1556> Mg>    2.00000000000    2.10323638531    8.41292522803   -4.23909984007
|1557> NewECP
|1558>   N_core 0
|1559>   lmax f
|1560>   s 1
|1561>    1      1.732000000   14.676000000 2
|1562>   p 1
|1563>    1      1.115000000    5.175700000 2
|1564>   d 1
|1565>    1      1.203000000   -1.816000000 2
|1566>   f 1
|1567>    1      1.000000000    0.000000000 2
|1568> end
|1569> Mg>    2.00000000000    8.41292357774    2.10323803561   -4.23909984007
|1570> NewECP
|1571>   N_core 0
|1572>   lmax f
|1573>   s 1
|1574>    1      1.732000000   14.676000000 2
|1575>   p 1
|1576>    1      1.115000000    5.175700000 2
|1577>   d 1
|1578>    1      1.203000000   -1.816000000 2
|1579>   f 1
|1580>    1      1.000000000    0.000000000 2
|1581> end
|1582> Mg>    2.00000000000    8.41292357774   -2.10322009268   -4.23909984007
|1583> NewECP
|1584>   N_core 0
|1585>   lmax f
|1586>   s 1
|1587>    1      1.732000000   14.676000000 2
|1588>   p 1
|1589>    1      1.115000000    5.175700000 2
|1590>   d 1
|1591>    1      1.203000000   -1.816000000 2
|1592>   f 1
|1593>    1      1.000000000    0.000000000 2
|1594> end
|1595> Mg>    2.00000000000    2.10323638531   -8.41290728510   -4.23909984007
|1596> NewECP
|1597>   N_core 0
|1598>   lmax f
|1599>   s 1
|1600>    1      1.732000000   14.676000000 2
|1601>   p 1
|1602>    1      1.115000000    5.175700000 2
|1603>   d 1
|1604>    1      1.203000000   -1.816000000 2
|1605>   f 1
|1606>    1      1.000000000    0.000000000 2
|1607> end
|1608> Mg>    2.00000000000   -2.10322174297   -8.41290728510   -4.23909984007
|1609> NewECP
|1610>   N_core 0
|1611>   lmax f
|1612>   s 1
|1613>    1      1.732000000   14.676000000 2
|1614>   p 1
|1615>    1      1.115000000    5.175700000 2
|1616>   d 1
|1617>    1      1.203000000   -1.816000000 2
|1618>   f 1
|1619>    1      1.000000000    0.000000000 2
|1620> end
|1621> Mg>    2.00000000000   -8.41290893540   -2.10322009268   -4.23909984007
|1622> NewECP
|1623>   N_core 0
|1624>   lmax f
|1625>   s 1
|1626>    1      1.732000000   14.676000000 2
|1627>   p 1
|1628>    1      1.115000000    5.175700000 2
|1629>   d 1
|1630>    1      1.203000000   -1.816000000 2
|1631>   f 1
|1632>    1      1.000000000    0.000000000 2
|1633> end
|1634> Mg>    2.00000000000   -4.20645080711    2.10323803561   -8.44555796836
|1635> NewECP
|1636>   N_core 0
|1637>   lmax f
|1638>   s 1
|1639>    1      1.732000000   14.676000000 2
|1640>   p 1
|1641>    1      1.115000000    5.175700000 2
|1642>   d 1
|1643>    1      1.203000000   -1.816000000 2
|1644>   f 1
|1645>    1      1.000000000    0.000000000 2
|1646> end
|1647> Mg>    2.00000000000   -2.10322174297    4.20646709975   -8.44555796836
|1648> NewECP
|1649>   N_core 0
|1650>   lmax f
|1651>   s 1
|1652>    1      1.732000000   14.676000000 2
|1653>   p 1
|1654>    1      1.115000000    5.175700000 2
|1655>   d 1
|1656>    1      1.203000000   -1.816000000 2
|1657>   f 1
|1658>    1      1.000000000    0.000000000 2
|1659> end
|1660> Mg>    2.00000000000    2.10323638531    4.20646709975   -8.44555796836
|1661> NewECP
|1662>   N_core 0
|1663>   lmax f
|1664>   s 1
|1665>    1      1.732000000   14.676000000 2
|1666>   p 1
|1667>    1      1.115000000    5.175700000 2
|1668>   d 1
|1669>    1      1.203000000   -1.816000000 2
|1670>   f 1
|1671>    1      1.000000000    0.000000000 2
|1672> end
|1673> Mg>    2.00000000000    4.20646544946    2.10323803561   -8.44555796836
|1674> NewECP
|1675>   N_core 0
|1676>   lmax f
|1677>   s 1
|1678>    1      1.732000000   14.676000000 2
|1679>   p 1
|1680>    1      1.115000000    5.175700000 2
|1681>   d 1
|1682>    1      1.203000000   -1.816000000 2
|1683>   f 1
|1684>    1      1.000000000    0.000000000 2
|1685> end
|1686> Mg>    2.00000000000    4.20646544946   -2.10322009268   -8.44555796836
|1687> NewECP
|1688>   N_core 0
|1689>   lmax f
|1690>   s 1
|1691>    1      1.732000000   14.676000000 2
|1692>   p 1
|1693>    1      1.115000000    5.175700000 2
|1694>   d 1
|1695>    1      1.203000000   -1.816000000 2
|1696>   f 1
|1697>    1      1.000000000    0.000000000 2
|1698> end
|1699> Mg>    2.00000000000    2.10323638531   -4.20644915682   -8.44555796836
|1700> NewECP
|1701>   N_core 0
|1702>   lmax f
|1703>   s 1
|1704>    1      1.732000000   14.676000000 2
|1705>   p 1
|1706>    1      1.115000000    5.175700000 2
|1707>   d 1
|1708>    1      1.203000000   -1.816000000 2
|1709>   f 1
|1710>    1      1.000000000    0.000000000 2
|1711> end
|1712> Mg>    2.00000000000   -2.10322174297   -4.20644915682   -8.44555796836
|1713> NewECP
|1714>   N_core 0
|1715>   lmax f
|1716>   s 1
|1717>    1      1.732000000   14.676000000 2
|1718>   p 1
|1719>    1      1.115000000    5.175700000 2
|1720>   d 1
|1721>    1      1.203000000   -1.816000000 2
|1722>   f 1
|1723>    1      1.000000000    0.000000000 2
|1724> end
|1725> Mg>    2.00000000000   -4.20645080711   -2.10322009268   -8.44555796836
|1726> NewECP
|1727>   N_core 0
|1728>   lmax f
|1729>   s 1
|1730>    1      1.732000000   14.676000000 2
|1731>   p 1
|1732>    1      1.115000000    5.175700000 2
|1733>   d 1
|1734>    1      1.203000000   -1.816000000 2
|1735>   f 1
|1736>    1      1.000000000    0.000000000 2
|1737> end
|1738> Mg>    2.00000000000  -10.51614246535    0.00000373010   -0.04129472389
|1739> NewECP
|1740>   N_core 0
|1741>   lmax f
|1742>   s 1
|1743>    1      1.732000000   14.676000000 2
|1744>   p 1
|1745>    1      1.115000000    5.175700000 2
|1746>   d 1
|1747>    1      1.203000000   -1.816000000 2
|1748>   f 1
|1749>    1      1.000000000    0.000000000 2
|1750> end
|1751> Mg>    2.00000000000   -0.00000077520   10.51614997580   -0.04127288263
|1752> NewECP
|1753>   N_core 0
|1754>   lmax f
|1755>   s 1
|1756>    1      1.732000000   14.676000000 2
|1757>   p 1
|1758>    1      1.115000000    5.175700000 2
|1759>   d 1
|1760>    1      1.203000000   -1.816000000 2
|1761>   f 1
|1762>    1      1.000000000    0.000000000 2
|1763> end
|1764> Mg>    2.00000000000   10.51614817607    0.00000373010   -0.04129472389
|1765> NewECP
|1766>   N_core 0
|1767>   lmax f
|1768>   s 1
|1769>    1      1.732000000   14.676000000 2
|1770>   p 1
|1771>    1      1.115000000    5.175700000 2
|1772>   d 1
|1773>    1      1.203000000   -1.816000000 2
|1774>   f 1
|1775>    1      1.000000000    0.000000000 2
|1776> end
|1777> Mg>    2.00000000000   -0.00000077520  -10.51614066562   -0.04127288263
|1778> NewECP
|1779>   N_core 0
|1780>   lmax f
|1781>   s 1
|1782>    1      1.732000000   14.676000000 2
|1783>   p 1
|1784>    1      1.115000000    5.175700000 2
|1785>   d 1
|1786>    1      1.203000000   -1.816000000 2
|1787>   f 1
|1788>    1      1.000000000    0.000000000 2
|1789> end
|1790> Mg>    2.00000000000    0.00000732117    0.00000897147  -10.54878703250
|1791> NewECP
|1792>   N_core 0
|1793>   lmax f
|1794>   s 1
|1795>    1      1.732000000   14.676000000 2
|1796>   p 1
|1797>    1      1.115000000    5.175700000 2
|1798>   d 1
|1799>    1      1.203000000   -1.816000000 2
|1800>   f 1
|1801>    1      1.000000000    0.000000000 2
|1802> end
|1803> Mg>    2.00000000000  -10.51613973119    2.10323704324   -2.12732261718
|1804> NewECP
|1805>   N_core 0
|1806>   lmax f
|1807>   s 1
|1808>    1      1.732000000   14.676000000 2
|1809>   p 1
|1810>    1      1.115000000    5.175700000 2
|1811>   d 1
|1812>    1      1.203000000   -1.816000000 2
|1813>   f 1
|1814>    1      1.000000000    0.000000000 2
|1815> end
|1816> Mg>    2.00000000000   -2.10322347462   10.51615329981   -2.12732261718
|1817> NewECP
|1818>   N_core 0
|1819>   lmax f
|1820>   s 1
|1821>    1      1.732000000   14.676000000 2
|1822>   p 1
|1823>    1      1.115000000    5.175700000 2
|1824>   d 1
|1825>    1      1.203000000   -1.816000000 2
|1826>   f 1
|1827>    1      1.000000000    0.000000000 2
|1828> end
|1829> Mg>    2.00000000000    2.10323465367   10.51615329981   -2.12732261718
|1830> NewECP
|1831>   N_core 0
|1832>   lmax f
|1833>   s 1
|1834>    1      1.732000000   14.676000000 2
|1835>   p 1
|1836>    1      1.115000000    5.175700000 2
|1837>   d 1
|1838>    1      1.203000000   -1.816000000 2
|1839>   f 1
|1840>    1      1.000000000    0.000000000 2
|1841> end
|1842> Mg>    2.00000000000   10.51615091024    2.10323704324   -2.12732261718
|1843> NewECP
|1844>   N_core 0
|1845>   lmax f
|1846>   s 1
|1847>    1      1.732000000   14.676000000 2
|1848>   p 1
|1849>    1      1.115000000    5.175700000 2
|1850>   d 1
|1851>    1      1.203000000   -1.816000000 2
|1852>   f 1
|1853>    1      1.000000000    0.000000000 2
|1854> end
|1855> Mg>    2.00000000000   10.51615091024   -2.10322108505   -2.12732261718
|1856> NewECP
|1857>   N_core 0
|1858>   lmax f
|1859>   s 1
|1860>    1      1.732000000   14.676000000 2
|1861>   p 1
|1862>    1      1.115000000    5.175700000 2
|1863>   d 1
|1864>    1      1.203000000   -1.816000000 2
|1865>   f 1
|1866>    1      1.000000000    0.000000000 2
|1867> end
|1868> Mg>    2.00000000000    2.10323465367  -10.51613734162   -2.12732261718
|1869> NewECP
|1870>   N_core 0
|1871>   lmax f
|1872>   s 1
|1873>    1      1.732000000   14.676000000 2
|1874>   p 1
|1875>    1      1.115000000    5.175700000 2
|1876>   d 1
|1877>    1      1.203000000   -1.816000000 2
|1878>   f 1
|1879>    1      1.000000000    0.000000000 2
|1880> end
|1881> Mg>    2.00000000000   -2.10322347462  -10.51613734162   -2.12732261718
|1882> NewECP
|1883>   N_core 0
|1884>   lmax f
|1885>   s 1
|1886>    1      1.732000000   14.676000000 2
|1887>   p 1
|1888>    1      1.115000000    5.175700000 2
|1889>   d 1
|1890>    1      1.203000000   -1.816000000 2
|1891>   f 1
|1892>    1      1.000000000    0.000000000 2
|1893> end
|1894> Mg>    2.00000000000  -10.51613973119   -2.10322108505   -2.12732261718
|1895> NewECP
|1896>   N_core 0
|1897>   lmax f
|1898>   s 1
|1899>    1      1.732000000   14.676000000 2
|1900>   p 1
|1901>    1      1.115000000    5.175700000 2
|1902>   d 1
|1903>    1      1.203000000   -1.816000000 2
|1904>   f 1
|1905>    1      1.000000000    0.000000000 2
|1906> end
|1907> Mg>    2.00000000000   -2.10322174297    2.10323803561  -10.54878703250
|1908> NewECP
|1909>   N_core 0
|1910>   lmax f
|1911>   s 1
|1912>    1      1.732000000   14.676000000 2
|1913>   p 1
|1914>    1      1.115000000    5.175700000 2
|1915>   d 1
|1916>    1      1.203000000   -1.816000000 2
|1917>   f 1
|1918>    1      1.000000000    0.000000000 2
|1919> end
|1920> Mg>    2.00000000000    2.10323638531    2.10323803561  -10.54878703250
|1921> NewECP
|1922>   N_core 0
|1923>   lmax f
|1924>   s 1
|1925>    1      1.732000000   14.676000000 2
|1926>   p 1
|1927>    1      1.115000000    5.175700000 2
|1928>   d 1
|1929>    1      1.203000000   -1.816000000 2
|1930>   f 1
|1931>    1      1.000000000    0.000000000 2
|1932> end
|1933> Mg>    2.00000000000    2.10323638531   -2.10322009268  -10.54878703250
|1934> NewECP
|1935>   N_core 0
|1936>   lmax f
|1937>   s 1
|1938>    1      1.732000000   14.676000000 2
|1939>   p 1
|1940>    1      1.115000000    5.175700000 2
|1941>   d 1
|1942>    1      1.203000000   -1.816000000 2
|1943>   f 1
|1944>    1      1.000000000    0.000000000 2
|1945> end
|1946> Mg>    2.00000000000   -2.10322174297   -2.10322009268  -10.54878703250
|1947> NewECP
|1948>   N_core 0
|1949>   lmax f
|1950>   s 1
|1951>    1      1.732000000   14.676000000 2
|1952>   p 1
|1953>    1      1.115000000    5.175700000 2
|1954>   d 1
|1955>    1      1.203000000   -1.816000000 2
|1956>   f 1
|1957>    1      1.000000000    0.000000000 2
|1958> end
|1959>   end
|1960> endd                         ****END OF INPUT****
================================================================================

                       ****************************
                       * Single Point Calculation *
                       ****************************

---------------------------------
CARTESIAN COORDINATES (ANGSTROEM)
---------------------------------
  O      0.000000    0.000000    0.000000
  Mg    -2.103226    0.000004   -0.041295
  Mg    -0.000001    2.103234   -0.041273
  Mg     2.103232    0.000004   -0.041295
  Mg    -0.000001   -2.103224   -0.041273
  Mg     0.000006    0.000008   -2.127317
  O     -2.103229    2.103232   -0.000002
  O      2.103229    2.103232   -0.000002
  O      2.103229   -2.103226   -0.000002
  O     -2.103229   -2.103226   -0.000002
  O     -2.103226    0.000000   -2.132280
  O      0.000001    2.103232   -2.132267
  O      2.103232    0.000000   -2.132280
  O      0.000001   -2.103226   -2.132267
  O     -4.206458    0.000000    0.000000
  O      0.000000    4.206458    0.000000
  O      4.206458    0.000000    0.000000
  O      0.000000   -4.206458    0.000000
  O      0.000007    0.000009   -4.239100
  Mg>   -2.103223    2.103237   -2.127323
  Mg>    2.103235    2.103237   -2.127323
  Mg>    2.103235   -2.103221   -2.127323
  Mg>   -2.103223   -2.103221   -2.127323
  Mg>   -4.206459    2.103234   -0.041273
  Mg>   -2.103226    4.206462   -0.041295
  Mg>    2.103232    4.206462   -0.041295
  Mg>    4.206457    2.103234   -0.041273
  Mg>    4.206457   -2.103224   -0.041273
  Mg>    2.103232   -4.206454   -0.041295
  Mg>   -2.103226   -4.206454   -0.041295
  Mg>   -4.206459   -2.103224   -0.041273
  Mg>   -4.206453    0.000008   -2.127317
  Mg>    0.000006    4.206466   -2.127317
  Mg>    4.206464    0.000008   -2.127317
  Mg>    0.000006   -4.206450   -2.127317
  Mg>   -2.103222    0.000009   -4.239100
  Mg>    0.000007    2.103238   -4.239100
  Mg>    2.103236    0.000009   -4.239100
  Mg>    0.000007   -2.103220   -4.239100
  Mg>   -6.309684    0.000004   -0.041295
  Mg>   -0.000001    6.309692   -0.041273
  Mg>    6.309690    0.000004   -0.041295
  Mg>   -0.000001   -6.309683   -0.041273
  Mg>   -4.206453    4.206466   -2.127317
  Mg>    4.206464    4.206466   -2.127317
  Mg>    4.206464   -4.206450   -2.127317
  Mg>   -4.206453   -4.206450   -2.127317
  Mg>   -4.206451    2.103238   -4.239100
  Mg>   -2.103222    4.206467   -4.239100
  Mg>    2.103236    4.206467   -4.239100
  Mg>    4.206465    2.103238   -4.239100
  Mg>    4.206465   -2.103220   -4.239100
  Mg>    2.103236   -4.206449   -4.239100
  Mg>   -2.103222   -4.206449   -4.239100
  Mg>   -4.206451   -2.103220   -4.239100
  Mg>    0.000007    0.000009   -6.342329
  Mg>   -6.309682    2.103237   -2.127323
  Mg>   -2.103223    6.309695   -2.127323
  Mg>    2.103235    6.309695   -2.127323
  Mg>    6.309693    2.103237   -2.127323
  Mg>    6.309693   -2.103221   -2.127323
  Mg>    2.103235   -6.309679   -2.127323
  Mg>   -2.103223   -6.309679   -2.127323
  Mg>   -6.309682   -2.103221   -2.127323
  Mg>   -2.103222    2.103238   -6.342329
  Mg>    2.103236    2.103238   -6.342329
  Mg>    2.103236   -2.103220   -6.342329
  Mg>   -2.103222   -2.103220   -6.342329
  Mg>   -6.309684    4.206462   -0.041295
  Mg>   -4.206459    6.309692   -0.041273
  Mg>    4.206457    6.309692   -0.041273
  Mg>    6.309690    4.206462   -0.041295
  Mg>    6.309690   -4.206454   -0.041295
  Mg>    4.206457   -6.309683   -0.041273
  Mg>   -4.206459   -6.309683   -0.041273
  Mg>   -6.309684   -4.206454   -0.041295
  Mg>   -6.309680    0.000009   -4.239100
  Mg>    0.000007    6.309696   -4.239100
  Mg>    6.309695    0.000009   -4.239100
  Mg>    0.000007   -6.309678   -4.239100
  Mg>   -4.206451    0.000009   -6.342329
  Mg>    0.000007    4.206467   -6.342329
  Mg>    4.206465    0.000009   -6.342329
  Mg>    0.000007   -4.206449   -6.342329
  Mg>   -8.412917    2.103234   -0.041273
  Mg>   -2.103226    8.412920   -0.041295
  Mg>    2.103232    8.412920   -0.041295
  Mg>    8.412915    2.103234   -0.041273
  Mg>    8.412915   -2.103224   -0.041273
  Mg>    2.103232   -8.412913   -0.041295
  Mg>   -2.103226   -8.412913   -0.041295
  Mg>   -8.412917   -2.103224   -0.041273
  Mg>   -8.412911    0.000008   -2.127317
  Mg>    0.000006    8.412925   -2.127317
  Mg>    8.412922    0.000008   -2.127317
  Mg>    0.000006   -8.412908   -2.127317
  Mg>   -6.309680    4.206467   -4.239100
  Mg>   -4.206451    6.309696   -4.239100
  Mg>    4.206465    6.309696   -4.239100
  Mg>    6.309695    4.206467   -4.239100
  Mg>    6.309695   -4.206449   -4.239100
  Mg>    4.206465   -6.309678   -4.239100
  Mg>   -4.206451   -6.309678   -4.239100
  Mg>   -6.309680   -4.206449   -4.239100
  Mg>   -4.206451    4.206467   -6.342329
  Mg>    4.206465    4.206467   -6.342329
  Mg>    4.206465   -4.206449   -6.342329
  Mg>   -4.206451   -4.206449   -6.342329
  Mg>   -2.103222    0.000009   -8.445558
  Mg>    0.000007    2.103238   -8.445558
  Mg>    2.103236    0.000009   -8.445558
  Mg>    0.000007   -2.103220   -8.445558
  Mg>   -6.309682    6.309695   -2.127323
  Mg>    6.309693    6.309695   -2.127323
  Mg>    6.309693   -6.309679   -2.127323
  Mg>   -6.309682   -6.309679   -2.127323
  Mg>   -6.309680    2.103238   -6.342329
  Mg>   -2.103222    6.309696   -6.342329
  Mg>    2.103236    6.309696   -6.342329
  Mg>    6.309695    2.103238   -6.342329
  Mg>    6.309695   -2.103220   -6.342329
  Mg>    2.103236   -6.309678   -6.342329
  Mg>   -2.103222   -6.309678   -6.342329
  Mg>   -6.309680   -2.103220   -6.342329
  Mg>   -8.412911    4.206466   -2.127317
  Mg>   -4.206453    8.412925   -2.127317
  Mg>    4.206464    8.412925   -2.127317
  Mg>    8.412922    4.206466   -2.127317
  Mg>    8.412922   -4.206450   -2.127317
  Mg>    4.206464   -8.412908   -2.127317
  Mg>   -4.206453   -8.412908   -2.127317
  Mg>   -8.412911   -4.206450   -2.127317
  Mg>   -8.412909    2.103238   -4.239100
  Mg>   -2.103222    8.412925   -4.239100
  Mg>    2.103236    8.412925   -4.239100
  Mg>    8.412924    2.103238   -4.239100
  Mg>    8.412924   -2.103220   -4.239100
  Mg>    2.103236   -8.412907   -4.239100
  Mg>   -2.103222   -8.412907   -4.239100
  Mg>   -8.412909   -2.103220   -4.239100
  Mg>   -4.206451    2.103238   -8.445558
  Mg>   -2.103222    4.206467   -8.445558
  Mg>    2.103236    4.206467   -8.445558
  Mg>    4.206465    2.103238   -8.445558
  Mg>    4.206465   -2.103220   -8.445558
  Mg>    2.103236   -4.206449   -8.445558
  Mg>   -2.103222   -4.206449   -8.445558
  Mg>   -4.206451   -2.103220   -8.445558
  Mg>  -10.516142    0.000004   -0.041295
  Mg>   -0.000001   10.516150   -0.041273
  Mg>   10.516148    0.000004   -0.041295
  Mg>   -0.000001  -10.516141   -0.041273
  Mg>    0.000007    0.000009  -10.548787
  Mg>  -10.516140    2.103237   -2.127323
  Mg>   -2.103223   10.516153   -2.127323
  Mg>    2.103235   10.516153   -2.127323
  Mg>   10.516151    2.103237   -2.127323
  Mg>   10.516151   -2.103221   -2.127323
  Mg>    2.103235  -10.516137   -2.127323
  Mg>   -2.103223  -10.516137   -2.127323
  Mg>  -10.516140   -2.103221   -2.127323
  Mg>   -2.103222    2.103238  -10.548787
  Mg>    2.103236    2.103238  -10.548787
  Mg>    2.103236   -2.103220  -10.548787
  Mg>   -2.103222   -2.103220  -10.548787

----------------------------
CARTESIAN COORDINATES (A.U.)
----------------------------
  NO LB      ZA    FRAG     MASS         X           Y           Z
   0 O     8.0000    0    15.999    0.000000    0.000000    0.000000
   1 Mg   12.0000    0    24.305   -3.974522    0.000007   -0.078036
   2 Mg   12.0000    0    24.305   -0.000001    3.974536   -0.077994
   3 Mg   12.0000    0    24.305    3.974532    0.000007   -0.078036
   4 Mg   12.0000    0    24.305   -0.000001   -3.974518   -0.077994
   5 Mg   12.0000    0    24.305    0.000010    0.000016   -4.020047
   6 O     8.0000    0    15.999   -3.974527    3.974533   -0.000003
   7 O     8.0000    0    15.999    3.974527    3.974533   -0.000003
   8 O     8.0000    0    15.999    3.974527   -3.974520   -0.000003
   9 O     8.0000    0    15.999   -3.974527   -3.974520   -0.000003
  10 O     8.0000    0    15.999   -3.974522    0.000000   -4.029425
  11 O     8.0000    0    15.999    0.000002    3.974533   -4.029402
  12 O     8.0000    0    15.999    3.974532    0.000000   -4.029425
  13 O     8.0000    0    15.999    0.000002   -3.974521   -4.029402
  14 O     8.0000    0    15.999   -7.949054    0.000000    0.000000
  15 O     8.0000    0    15.999    0.000000    7.949054    0.000000
  16 O     8.0000    0    15.999    7.949054    0.000000    0.000000
  17 O     8.0000    0    15.999    0.000000   -7.949054    0.000000
  18 O     8.0000    0    15.999    0.000014    0.000017   -8.010738
  19 Mg>   2.0000    0     0.000   -3.974516    3.974542   -4.020057
  20 Mg>   2.0000    0     0.000    3.974537    3.974542   -4.020057
  21 Mg>   2.0000    0     0.000    3.974537   -3.974512   -4.020057
  22 Mg>   2.0000    0     0.000   -3.974516   -3.974512   -4.020057
  23 Mg>   2.0000    0     0.000   -7.949055    3.974536   -0.077994
  24 Mg>   2.0000    0     0.000   -3.974522    7.949061   -0.078036
  25 Mg>   2.0000    0     0.000    3.974532    7.949061   -0.078036
  26 Mg>   2.0000    0     0.000    7.949052    3.974536   -0.077994
  27 Mg>   2.0000    0     0.000    7.949052   -3.974518   -0.077994
  28 Mg>   2.0000    0     0.000    3.974532   -7.949047   -0.078036
  29 Mg>   2.0000    0     0.000   -3.974522   -7.949047   -0.078036
  30 Mg>   2.0000    0     0.000   -7.949055   -3.974518   -0.077994
  31 Mg>   2.0000    0     0.000   -7.949043    0.000016   -4.020047
  32 Mg>   2.0000    0     0.000    0.000010    7.949070   -4.020047
  33 Mg>   2.0000    0     0.000    7.949064    0.000016   -4.020047
  34 Mg>   2.0000    0     0.000    0.000010   -7.949038   -4.020047
  35 Mg>   2.0000    0     0.000   -3.974513    0.000017   -8.010738
  36 Mg>   2.0000    0     0.000    0.000014    3.974544   -8.010738
  37 Mg>   2.0000    0     0.000    3.974541    0.000017   -8.010738
  38 Mg>   2.0000    0     0.000    0.000014   -3.974510   -8.010738
  39 Mg>   2.0000    0     0.000  -11.923575    0.000007   -0.078036
  40 Mg>   2.0000    0     0.000   -0.000001   11.923590   -0.077994
  41 Mg>   2.0000    0     0.000   11.923586    0.000007   -0.078036
  42 Mg>   2.0000    0     0.000   -0.000001  -11.923572   -0.077994
  43 Mg>   2.0000    0     0.000   -7.949043    7.949070   -4.020047
  44 Mg>   2.0000    0     0.000    7.949064    7.949070   -4.020047
  45 Mg>   2.0000    0     0.000    7.949064   -7.949038   -4.020047
[...]
   Aux shells -> PAOs            939.0
   MOs        -> AO shells       268.4
   PAOs       -> AO shells       291.0

Calculating integrals (14.4 sec, 2364.657 MB)
Sorting integrals (3.0 sec, 2364.609 MB)
Total time for the integral transformation: 17.8 sec
--------------------------------
INITIAL GUESS AND PNO GENERATION
--------------------------------

PNO truncation parameters                   .... 
    ScaleTCutPNO       =        1.000e-02
    PAOOverlapThresh   =        1.000e-08

    TCutPairs          =        1.000e-05
    TCutPNO            =        1.000e-07
    TCutPNOSingles     =        3.000e-09
    TCutMP2Pairs       =        1.000e-06
    TCutMKN            =        1.000e-03
    TCutDO             =        5.000e-03

Pair selection                          .... not used
Type of local MP2 treatment                 .... full local PMP2
Strategy for PNO selection                  .... occupation number selection
Pair density normalization                  .... MP2 norm
Spin component scaling                      .... not used

PASS-1: Formation of initial guess LMP2 amplitudes
Initial amplitudes guess done. Entering LMP2 iteration loop:
   Max. no of iterations          ...  50
   Energy convergence tolerance   ...    1.0e-07
   Residual convergence tolerance ...    5.0e-07
   Fock matrix cutoff             ...    1.0e-05 Eh
   DIIS convergence acceleration parameters:
        Max # vectors in DIIS     ... 7
        Start iteration of DIIS   ... 0
        Levelshift                ... 2.000e-01
        Damping factor 1          ... 5.000e-01
        Damping factor 2          ... 1.000e+00
   L-MP2 PNO cut-off              ...   1.0e-09
   L-MP2 PNO cut-off (core)       ...   1.0e-11
                           *** Turning on DIIS ***
LMP2-Iter=   0:  ELMP2= -5.068820686555  DE=   1.1e-01 RMAX=   6.0e-03
LMP2-Iter=   1:  ELMP2= -5.120138540743  DE=   5.1e-02 RMAX=   2.8e-03
LMP2-Iter=   2:  ELMP2= -5.127668008495  DE=   7.5e-03 RMAX=   6.5e-04
LMP2-Iter=   3:  ELMP2= -5.128960440031  DE=   1.3e-03 RMAX=   2.9e-04
LMP2-Iter=   4:  ELMP2= -5.129095405554  DE=   1.3e-04 RMAX=   5.2e-05
LMP2-Iter=   5:  ELMP2= -5.129096114846  DE=   7.1e-07 RMAX=   2.4e-05
LMP2-Iter=   6:  ELMP2= -5.129094357438  DE=   1.8e-06 RMAX=   3.3e-06
LMP2-Iter=   7:  ELMP2= -5.129094052374  DE=   3.1e-07 RMAX=   1.4e-06
LMP2-Iter=   8:  ELMP2= -5.129094072958  DE=   2.1e-08 RMAX=   2.1e-07
LMP2-Iter=   9:  ELMP2= -5.129094087245  DE=   1.4e-08 RMAX=   4.6e-08 => CONVERGED
PASS-2: Formation of Pair natural orbitals
   .... Finished loop over pairs

 PNO Occupation Number Statistics: 
  | Av. % of trace(Dij) retained        ...  94.869746940548
  | sigma^2 in % of trace(Dij) retained ...   8.28e+01
  | Av. % of trace(Di) retained         ...  99.999705312671
  | sigma^2 in % of trace(Di) retained  ...   9.96e-09
 Distributions of % trace(Dij) recovered:
  |        < 40.0  ...     7 (  0.3 % of all pairs)
  |       >= 99.9  ...   202 (  8.9 % of all pairs)
  |   [50.0, 60.0) ...    20 (  0.9 % of all pairs)
  |   [60.0, 70.0) ...    62 (  2.7 % of all pairs)
  |   [70.0, 80.0) ...   104 (  4.6 % of all pairs)
  |   [80.0, 90.0) ...   154 (  6.8 % of all pairs)
  |   [90.0, 99.0) ...  1025 ( 45.3 % of all pairs)
  |   [99.0, 99.9) ...   689 ( 30.4 % of all pairs)
 Distributions of % trace(Di) recovered :
  |       >= 99.9  ...    76 (100.0 % of all I-pairs )

Making pair pair interaction lists          ... done

                       ===========================
                       1336 OF 2263 PAIRS ARE KEPT
                       ===========================

Total time spent in the initial guess                 ...  1569.363 sec
L-MP2 correlation energy (all non-screened pairs)     ...      -5.129094087245 Eh
L-MP2 PNO error correction                            ...      -0.000187454819 Eh
                                                          --------------------
Initial total L-MP2 energy (non-screened pairs)       ...      -5.129281542064 Eh

Initial PNO correlation energy                        ...      -5.120207112589 Eh
sum of pair energies estimated for screened out pairs ...      -0.000435240449 Eh
sum of MP2 pair energies for pairs that were not kept ...      -0.003806405348 Eh
sum of PNO error estimates for the kept pairs         ...      -0.005493278440 Eh
                                                          --------------------
sum of all corrections                                         -0.009734924237
Initial total correlation energy                               -5.129942036826
Thresholds for map construction and integral transformation for fine MP2 and CCSD(T) calculation:
   TCutMKN   ...     1.0e-03
   TCutDO    ...     5.0e-03
   TCutPairs ...     1.0e-05
   TCutCMO   ...     1.0e-03
   TCutCPAO  ...     1.0e-03

Time for aux screen maps:            0.049
Time for maps after fine MP2:            0.144
-----------------------------
LOCAL RI TRANSFORMATION (IJV)
-----------------------------

Orbital window:      19 to 94
Basis functions:    939 (291 shells)
Aux. functions:    4343 (1095 shells)
Use SHARK:           on

Processing maps (0.0 sec)
Average map sizes:
   Aux shells -> MOs(i)           74.8
   Aux shells -> MOs(j)           76.0
   MOs        -> AO shells       268.4

Calculating integrals (10.1 sec, 188.415 MB)
Sorting integrals (0.5 sec, 188.366 MB)
Total time for the integral transformation: 10.6 sec
--------------------------------
LOCAL RI TRANSFORMATION (VABPAO)
--------------------------------

Number of PAOs:     939
Basis functions:    939 (291 shells)
Aux. functions:    4343 (1095 shells)
Use SHARK:           on

Processing maps (0.0 sec)
Average map sizes:
   Aux shells -> PAOs            939.0
   PAOs       -> AO shells       291.0

Calculating integrals (105.8 sec, 29215.399 MB)
Finished


-------------------------------------
Pair Pair Term precalculation with     
RI-(ij|mn) and (im|jn) transformation  
ON THE FLY                             
-------------------------------------

   IBatch   1 (of   3)              ... done ( 1688.683 sec)
   IBatch   2 (of   3)              ... done ( 2318.967 sec)
   IBatch   3 (of   3)              ... done (  394.902 sec)
Total EXT                           ...        4402.553 sec

---------------------
RI-PNO TRANSFORMATION
---------------------

Total Number of PNOs                   ... 30016
Average number of PNOs per pair        ...    22
Maximal number of PNOs per pair        ...    71
   #pairs with  1 -  5 PNOs   :    0
   #pairs with  6 - 10 PNOs   :  386
   #pairs with 11 - 15 PNOs   :   86
   #pairs with 16 - 20 PNOs   :  138
   #pairs with 21 - 25 PNOs   :  269
   #pairs with 26 - 30 PNOs   :  242
   #pairs with 31 - 35 PNOs   :   65
   #pairs with 36 - 40 PNOs   :   10
   #pairs with 41 - 45 PNOs   :    3
   #pairs with 46 - 50 PNOs   :   31
   #pairs with 51 - 55 PNOs   :   48
   #pairs with 56 - 60 PNOs   :   34
   #pairs with 61 - 65 PNOs   :   18
   #pairs with 66 - 70 PNOs   :    3
   #pairs with 71 - 75 PNOs   :    3

Generation of (ij|ab)[P] integrals            ... on
Generation of (ia|bc)[P],(ja|bc)[P] integrals ... on
Storage of 3 and 4 external integrals         ... on
Generation of ALL (ka|bc)[P] integrals        ... on
Keep RI integrals in memory                   ... off

Ibatch:  1 (of  1)
Starting 2-4 index PNO integral generation ... done

Timings:
Total PNO integral transformation time     ...       3548.927 sec
Size of the 3-external file                ...       285 MB
Size of the 4-external file                ...      1688 MB
Size of the IKJL file                      ...         2 MB
Size of the all 3-external file            ...     10859 MB
Size of the 1-external file                ...        52 MB

Making pair/pair overlap matrices          ... done (  599.616 sec)
Redoing the guess amplitudes               ... done (    0.097 sec)

-------------------------
FINAL STARTUP INFORMATION
-------------------------

E(0)                                       ...  -4712.770899774
E(L-MP2)                                   ...     -5.129281542
E(L-MP2) including corrections             ...     -5.129942037
Initial E(tot)                             ...  -4717.900841811
<T|T>                                      ...      1.012472085
Number of pairs included                   ... 1336
Total number of pairs                      ... 2926

------------------------------------------------
                  RHF COUPLED CLUSTER ITERATIONS
------------------------------------------------

Number of PNO amplitudes to be optimized   ...       928968
Number of non-PNO amplitudes               ...    951680896
Untruncated number of regular amplitudes   ...   2084295136

Iter       E(tot)           E(Corr)          Delta-E          Residual     Time
  0  -4717.733822742     -4.953188044      0.176093498      0.025186116   85.85
                           *** Turning on DIIS ***
  1  -4717.774296797     -4.993662099     -0.040474054      0.008097145   80.92
  2  -4717.861119374     -5.080484675     -0.086822577      0.002478838   81.12
  3  -4717.874806546     -5.094171847     -0.013687172      0.001672337   81.58
  4  -4717.880321510     -5.099686811     -0.005514964      0.000623850   81.49
  5  -4717.881955689     -5.101320991     -0.001634179      0.000407891   80.82
  6  -4717.882139323     -5.101504625     -0.000183635      0.000173543   80.73
  7  -4717.882174423     -5.101539725     -0.000035100      0.000089624   81.06
  8  -4717.882193326     -5.101558627     -0.000018903      0.000034700   81.06
  9  -4717.882184626     -5.101549928      0.000008699      0.000008158   81.94
 10  -4717.882183918     -5.101549220      0.000000709      0.000002913   81.97
 11  -4717.882182247     -5.101547549      0.000001671      0.000001378   81.82
 12  -4717.882181839     -5.101547140      0.000000408      0.000000439   81.15
               --- The Coupled-Cluster iterations have converged ---

----------------------
COUPLED CLUSTER ENERGY
----------------------

E(0)                                       ...  -4712.770899774
E(CORR)(strong-pairs)                      ...     -5.101547140
E(CORR)(weak-pairs)                        ...     -0.009734924
E(CORR)(corrected)                         ...     -5.111282065
E(TOT)                                     ...  -4717.882181839
Singles Norm <S|S>**1/2                    ...      0.127839681  
T1 diagnostic                              ...      0.010369167  

------------------
LARGEST AMPLITUDES
------------------
  70-> 98  70-> 98       0.033583
  76-> 98  76-> 98       0.030251
  75-> 98  75-> 98       0.030250
  77-> 98  77-> 98       0.030249
  74-> 98  74-> 98       0.030248
  91-> 97  91-> 97       0.025877
  87-> 97  87-> 97       0.025876
  92-> 97  92-> 97       0.025863
  88-> 97  88-> 97       0.025861
  94-> 96  94-> 96       0.025416
  83-> 96  83-> 96       0.025138
  78-> 96  78-> 96       0.025137
  85-> 96  85-> 96       0.025135
  79-> 96  79-> 96       0.025134
  82-> 96  82-> 96       0.025134
  84-> 96  84-> 96       0.025134


-------------------------------------------
DLPNO BASED TRIPLES CORRECTION
-------------------------------------------

Singles multiplier          ...  1.000000
TCutTNO                     ... 1.000e-09
TCutMP2Pairs                ... 1.000e-06
TCutDOStrong                ... 1.000e-02
TCutMKNStrong               ... 1.000e-02
TCutDOWeak                  ... 2.000e-02
TCutMKNWeak                 ... 1.000e-01

Fragment selection                          .... not used
Number of Triples that are to be computed   ...     23118

 . . . . . . . . .
10% done  
20% done  
30% done  
40% done  
50% done  
60% done  
70% done               (  21308.038 sec)
 . . . . . . . . .
80% done  
90% done               (   4702.516 sec)
Triples timings:
Total time for T0               ... 28045.932 sec
Total time for Iterative (T)    ...     0.000 sec
Total time of overall (T)       ... 28968.582 sec

Triples List generation         ...     0.000 sec
TNO generation                  ...  2035.026 sec
Pair density generation         ...     0.050 sec
Look up tables                  ...     0.000 sec
Generating 3-index integrals    ... 22534.192 sec
  Make 4-ind.int. from 3-ind.int...   519.831 sec
  Projecting amplitudes (D + S) ...  2882.551 sec
  Downprojecting integrals      ...     0.013 sec
  Energy contr. (sum over a,b,c)...     8.590 sec
Fitting ET(->0)                 ...     0.000 sec

Everything after 3-index        ...  3476.361 sec

Timing details:
 TNO integrals                  ... 23036.359 sec
   Reading 3-index integrals    ...    40.544 sec
   Sorting integrals            ...  1480.313 sec
       Sorting integrals 1      ...     0.015 sec
       Sorting integrals 2      ...  1451.214 sec
       Sorting integrals 3      ...    12.612 sec
       Sorting integrals 4      ...     2.235 sec
       Sorting integrals 5      ...     9.199 sec
       Sorting integrals 6      ...     5.038 sec
   Calculating local VM**-1/2   ...   190.036 sec
   Orthogonal. integrals        ...   138.915 sec
   Multipl. 3-index integrals   ... 21186.552 sec
   All concerning IRIab (w/TNO) ...   169.548 sec

 Calculate W0/W1                ...    65.196 sec
 W 3-ext contribution           ...    32.384 sec
 W 3-int contribution           ...    28.843 sec
 Sorting W                      ...     3.210 sec

 V exchange contribution        ...     3.448 sec

 Timings for Triples without generation
     of 3-index integrals       ...  3476.336 sec
       0 weak pairs             ...  2362.468 sec
       1 weak pair              ...  1113.868 sec
       2 weak pairs             ...     0.000 sec
       3 weak pairs             ...     0.000 sec
  Extra time for extrapolation  ...     0.000 sec

Number of Triples   (0, 1, 2, 3 weak pairs; overall):  13178    9940       0       0  ( 23118)
Number of Atoms     (0, 1, 2, 3 weak pairs; overall):   16.5    16.3     0.0     0.0  (   165)
Number of PAOs      (0, 1, 2, 3 weak pairs; overall):  821.7   816.0     0.0     0.0  (   939)
Number of AuxFcns   (0, 1, 2, 3 weak pairs; overall): 1614.2   689.5     0.0     0.0  (  4343)
Number of TNOs      (0, 1, 2, 3 weak pairs         ):   64.2    43.0     0.0     0.0
Aver. Number of NTNO, Atoms, PAOs, AuxFcns / Triples:  23118    55.0    16.4   819.3  1216.6

Triples Correction (T)                     ...     -0.162950091
Final correlation energy                   ...     -5.274232156
E(CCSD)                                    ...  -4717.882181839
E(CCSD(T))                                 ...  -4718.045131930



------------------------------------------------------------------------------- 
                                     TIMINGS                                   
------------------------------------------------------------------------------- 


Total execution time                   ...    41892.556 sec

Localization of occupied MO's          ...      492.475 sec (  1.2%)
Fock Matrix Formation                  ...       22.561 sec (  0.1%)
Global overlap, Fock, MKN matrices     ...        1.969 sec (  0.0%)
Differential overlap integrals         ...        2.570 sec (  0.0%)
Organizing maps                        ...        0.281 sec (  0.0%)
RI 3-index integral generations        ...      151.996 sec (  0.4%)
RI-PNO integral transformation         ...     9029.464 sec ( 21.6%)
Initial Guess                          ...     2155.588 sec (  5.1%)
DIIS Solver                            ...        5.931 sec (  0.0%)
State Vector Update                    ...        0.075 sec (  0.0%)
Sigma-vector construction              ...     1060.032 sec (  2.5%)
  <0|H|D>                              ...        0.002 sec (  0.0% of sigma)
  <D|H|D>(0-ext)                       ...       30.282 sec (  2.9% of sigma)
  <D|H|D>(2-ext Fock)                  ...        0.035 sec (  0.0% of sigma)
  <D|H|D>(2-ext)                       ...      713.703 sec ( 67.3% of sigma)
  <D|H|D>(4-ext)                       ...        9.170 sec (  0.9% of sigma)
  <D|H|D>(4-ext-corr)                  ...       87.099 sec (  8.2% of sigma)
  CCSD doubles correction              ...        0.715 sec (  0.1% of sigma)
  <S|H|S>                              ...        0.362 sec (  0.0% of sigma)
  <S|H|D>(1-ext)                       ...        2.404 sec (  0.2% of sigma)
  <D|H|S>(1-ext)                       ...        0.042 sec (  0.0% of sigma)
  <S|H|D>(3-ext)                       ...        0.287 sec (  0.0% of sigma)
  CCSD singles correction              ...        0.004 sec (  0.0% of sigma)
  Fock-dressing                        ...       84.562 sec (  8.0% of sigma)
  Singles amplitudes                   ...        2.456 sec (  0.2% of sigma)
  (ik|jl)-dressing                     ...       25.930 sec (  2.4% of sigma)
  (ij|ab),(ia|jb)-dressing             ...       10.404 sec (  1.0% of sigma)
  Pair energies                        ...        0.034 sec (  0.0% of sigma)
Total Time for computing (T)           ...    28968.619 sec ( 69.1% of ALL)


Maximum memory used throughout the entire MDCI-calculation: 41059.5 MB

-------------------------   --------------------
FINAL SINGLE POINT ENERGY     -4718.045131929709
-------------------------   --------------------


                            ***************************************
                            *     ORCA property calculations      *
                            ***************************************


  WARNING: The energy has been calculated at the MDCI level but the densities
           used in the property calculations are still SCF densities
           MDCI response densities have not been calculated 
           use %mdci Density linearized end
           or  %mdci Density unrelaxed end
           or  %mdci Density orbopt end

                                    ---------------------
                                    Active property flags
                                    ---------------------
   (+) Dipole Moment


------------------------------------------------------------------------------
                       ORCA ELECTRIC PROPERTIES CALCULATION
------------------------------------------------------------------------------

Dipole Moment Calculation                       ... on
Quadrupole Moment Calculation                   ... off
Polarizability Calculation                      ... off
GBWName                                         ... orca.gbw
Electron density                                ... orca.scfp
The origin for moment calculation is the CENTER OF MASS  = ( 0.000003,  0.000006 -1.422016)

-------------
DIPOLE MOMENT
-------------
                                X             Y             Z
Electronic contribution:      0.00001       0.00007      15.19715
Nuclear contribution   :      0.00224       0.00251   -1542.40114
                        -----------------------------------------
Total Dipole Moment    :      0.00226       0.00258   -1527.20399
                        -----------------------------------------
Magnitude (a.u.)       :   1527.20399
Magnitude (Debye)      :   3881.84405



--------------------
Rotational spectrum 
--------------------
 
Rotational constants in cm-1:     0.009923     0.009923     0.006990 
Rotational constants in MHz :   297.487873   297.487873   209.553530 

 Dipole components along the rotational axes: 
x,y,z [a.u.] :     0.005087    -0.000931 -1527.203993 
x,y,z [Debye]:     0.012930    -0.002367 -3881.844054 

 

Timings for individual modules:

Sum of individual times         ...    42332.112 sec (= 705.535 min)
GTO integral calculation        ...       46.953 sec (=   0.783 min)   0.1 %
SCF iterations                  ...      385.055 sec (=   6.418 min)   0.9 %
MDCI module                     ...    41900.103 sec (= 698.335 min)  99.0 %
                             ****ORCA TERMINATED NORMALLY****
TOTAL RUN TIME: 0 days 11 hours 45 minutes 37 seconds 448 msec
