 **********************************************************************
                          MRCC program system
 **********************************************************************
 
                              Written by
 Mihaly Kallay, Peter R. Nagy, David Mester, Zoltan Rolik, Gyula Samu,
   Jozsef Csontos, Jozsef Csoka, P. Bernat Szabo, Laszlo Gyevi-Nagy,
    Bence Hegely, Istvan Ladjanszki, Lorant Szegedy, Bence Ladoczki,
       Klara Petrov, Mate Farkas, Pal D. Mezei, and Adam Ganyecz
 
        Department of Physical Chemistry and Materials Science
            Budapest University of Technology and Economics
                  Budapest P.O.Box 91, H-1521 Hungary
 
                              www.mrcc.hu
 
                    Release date: February 22, 2020

 ************************ 2021-12-10 20:51:27 *************************
 Executing minp...

 Reading input from MINP...
 
 Input file:
 
calc=SCF
dft=wB97X
scftype=rks
verbosity=3
mem=490GB
symm=off
unit=angs
scfiguess=restart
scfmaxit=1000

charge=-82
basis=special
def2-QZVPP
def2-QZVPP
def2-QZVPP
def2-QZVPP
def2-QZVPP
def2-QZVPP
def2-QZVPP
def2-QZVPP
def2-QZVPP
def2-QZVPP
def2-QZVPP
def2-QZVPP
def2-QZVPP
def2-QZVPP
def2-QZVPP
def2-QZVPP
def2-QZVPP
def2-QZVPP
def2-QZVPP
def2-QZVPP
def2-QZVPP
def2-QZVPP
def2-QZVPP
def2-QZVPP
def2-QZVPP
def2-QZVPP
def2-QZVPP
def2-QZVPP
def2-QZVPP
def2-QZVPP
def2-QZVPP
def2-QZVPP
def2-QZVPP
def2-QZVPP
def2-QZVPP
def2-QZVPP
def2-QZVPP
def2-QZVPP
def2-QZVPP
def2-QZVPP
def2-QZVPP
def2-QZVPP
def2-QZVPP
def2-QZVPP
def2-QZVPP
def2-QZVPP
def2-QZVPP
def2-QZVPP
def2-QZVPP
def2-QZVPP
def2-QZVPP
def2-QZVPP
def2-QZVPP
def2-QZVPP
def2-QZVPP
def2-QZVPP
def2-QZVPP
def2-QZVPP
def2-QZVPP
def2-QZVPP
def2-QZVPP
def2-QZVPP
def2-QZVPP
def2-QZVPP
def2-QZVPP
def2-QZVPP
def2-QZVPP
def2-QZVPP
def2-QZVPP
def2-QZVPP
def2-QZVPP
def2-QZVPP
def2-QZVPP
def2-QZVPP
def2-QZVPP
def2-QZVPP
def2-QZVPP
def2-QZVPP
def2-QZVPP
def2-QZVPP
def2-QZVPP
def2-QZVPP
def2-QZVPP
def2-QZVPP
def2-QZVPP
def2-QZVPP
def2-QZVPP
def2-QZVPP
def2-QZVPP
def2-QZVPP
def2-QZVPP
def2-QZVPP
def2-QZVPP
def2-QZVPP
def2-QZVPP
def2-QZVPP
def2-QZVPP
def2-QZVPP
def2-QZVPP
def2-QZVPP
def2-QZVPP
def2-QZVPP
def2-QZVPP
def2-QZVPP
def2-QZVPP
def2-QZVPP
def2-QZVPP
def2-QZVPP
def2-QZVPP
def2-QZVPP
def2-QZVPP
def2-QZVPP
def2-QZVPP
def2-QZVPP
def2-QZVPP
def2-QZVPP
def2-QZVPP
nothing
nothing
nothing
nothing
nothing
nothing
nothing
nothing
nothing
nothing
nothing
nothing
nothing
nothing
nothing
nothing
nothing
nothing
nothing
nothing
nothing
nothing
nothing
nothing
nothing
nothing
nothing
nothing
nothing
nothing
nothing
nothing
nothing
nothing
nothing
nothing
nothing
nothing
nothing
nothing
nothing
nothing
nothing
nothing
nothing
nothing
nothing
nothing
nothing
nothing
nothing
nothing
nothing
nothing
nothing
nothing
nothing
nothing
nothing
nothing
nothing
nothing
nothing
nothing
nothing
nothing
nothing
nothing
nothing
nothing
nothing
nothing
nothing
nothing
nothing
nothing
nothing
nothing
nothing
nothing
nothing
nothing
nothing
nothing
nothing
nothing
nothing
nothing
nothing
nothing
nothing
nothing
nothing
nothing
nothing
nothing
nothing
nothing
nothing
nothing
nothing
nothing
nothing
nothing
nothing
nothing
nothing
nothing
nothing
nothing
nothing
nothing
nothing
nothing
nothing
nothing
nothing
nothing
nothing
nothing
nothing
nothing
nothing
nothing
nothing
nothing
nothing
nothing
nothing
nothing
nothing
nothing
nothing
nothing
nothing
nothing
nothing
nothing
nothing
nothing
nothing
nothing
nothing
nothing
nothing
nothing
nothing
nothing
nothing
nothing
nothing
nothing
nothing
nothing
nothing
nothing
nothing
nothing
nothing
nothing
nothing
nothing
nothing
nothing
nothing
nothing
nothing
nothing
nothing
nothing
nothing
nothing
nothing
nothing
nothing
nothing
nothing
nothing
nothing
nothing
nothing
nothing
nothing
nothing
nothing
nothing
nothing
nothing
nothing
nothing
nothing
nothing
nothing
nothing
nothing
nothing
nothing
nothing
nothing
nothing
nothing
nothing
nothing
nothing
nothing
nothing
nothing
nothing
nothing
nothing
nothing
nothing
nothing
nothing
nothing
nothing
nothing
nothing
nothing
nothing
nothing
nothing
nothing
nothing
nothing
nothing
nothing
nothing
nothing
nothing
nothing
nothing
nothing
nothing
nothing
nothing
nothing
nothing
nothing
nothing
nothing
nothing
nothing
nothing
nothing
nothing
nothing
nothing
nothing
nothing
nothing
nothing
nothing
nothing
nothing
nothing
nothing
nothing
nothing
nothing
nothing
nothing
nothing
nothing
nothing
nothing
nothing
nothing
nothing
nothing
nothing
nothing
nothing
nothing
nothing
nothing
nothing
nothing
nothing
nothing
nothing
nothing
nothing
nothing
nothing
nothing
nothing
nothing
nothing
nothing
nothing
nothing
nothing
nothing
nothing
nothing
nothing
nothing
nothing
nothing
nothing
nothing
nothing
nothing
nothing
nothing
nothing
nothing
nothing
nothing
nothing
nothing
nothing
nothing
nothing
nothing
nothing
nothing
nothing
nothing
nothing
nothing
nothing
nothing
nothing
nothing
nothing
nothing
nothing
nothing
nothing
nothing
nothing
nothing
nothing
nothing
nothing
nothing
nothing
nothing
nothing
nothing
nothing
nothing
nothing
nothing
nothing
nothing
nothing
nothing
nothing
nothing
nothing
nothing
nothing
nothing
nothing
nothing
nothing
nothing
nothing
nothing
nothing
nothing
nothing
nothing
nothing
nothing
nothing
nothing
nothing
nothing
nothing
nothing
nothing
nothing
nothing
nothing
nothing
nothing
nothing
nothing
nothing
nothing
nothing
nothing
nothing
nothing
nothing
nothing
nothing
nothing
nothing
nothing
nothing
nothing
nothing
nothing
nothing
nothing
nothing
nothing
nothing
nothing
nothing
nothing
nothing
nothing
nothing
nothing
nothing
nothing
nothing
nothing
nothing
nothing
nothing
nothing
nothing
nothing
nothing
nothing
nothing
nothing
nothing
nothing
nothing
nothing
nothing
nothing
nothing
nothing
nothing
nothing
nothing
nothing
nothing
nothing
nothing
nothing
nothing
nothing
nothing
nothing
nothing
nothing
nothing
nothing
nothing
nothing
nothing
nothing
nothing
nothing
nothing
nothing
nothing
nothing
nothing
nothing
nothing
nothing
nothing
nothing
nothing
nothing
nothing
nothing
nothing
nothing
nothing
nothing
nothing
nothing
nothing
nothing
nothing
nothing
nothing
nothing
nothing
nothing
nothing
nothing
nothing
nothing
nothing
nothing
nothing
nothing
nothing
nothing
nothing
nothing
nothing
nothing
nothing
nothing
nothing
nothing

basis_sm=special
STO-3G
STO-3G
STO-3G
STO-3G
STO-3G
STO-3G
STO-3G
STO-3G
STO-3G
STO-3G
STO-3G
STO-3G
STO-3G
STO-3G
STO-3G
STO-3G
STO-3G
STO-3G
STO-3G
STO-3G
STO-3G
STO-3G
STO-3G
STO-3G
STO-3G
STO-3G
STO-3G
STO-3G
STO-3G
STO-3G
STO-3G
STO-3G
STO-3G
STO-3G
STO-3G
STO-3G
STO-3G
STO-3G
STO-3G
STO-3G
STO-3G
STO-3G
STO-3G
STO-3G
STO-3G
STO-3G
STO-3G
STO-3G
STO-3G
STO-3G
STO-3G
STO-3G
STO-3G
STO-3G
STO-3G
STO-3G
STO-3G
STO-3G
STO-3G
STO-3G
STO-3G
STO-3G
STO-3G
STO-3G
STO-3G
STO-3G
STO-3G
STO-3G
STO-3G
STO-3G
STO-3G
STO-3G
STO-3G
STO-3G
STO-3G
STO-3G
STO-3G
STO-3G
STO-3G
STO-3G
STO-3G
STO-3G
STO-3G
STO-3G
STO-3G
STO-3G
STO-3G
STO-3G
STO-3G
STO-3G
STO-3G
STO-3G
STO-3G
STO-3G
STO-3G
STO-3G
STO-3G
STO-3G
STO-3G
STO-3G
STO-3G
STO-3G
STO-3G
STO-3G
STO-3G
STO-3G
STO-3G
STO-3G
STO-3G
STO-3G
STO-3G
STO-3G
STO-3G
STO-3G
STO-3G
STO-3G
STO-3G
nothing
nothing
nothing
nothing
nothing
nothing
nothing
nothing
nothing
nothing
nothing
nothing
nothing
nothing
nothing
nothing
nothing
nothing
nothing
nothing
nothing
nothing
nothing
nothing
nothing
nothing
nothing
nothing
nothing
nothing
nothing
nothing
nothing
nothing
nothing
nothing
nothing
nothing
nothing
nothing
nothing
nothing
nothing
nothing
nothing
nothing
nothing
nothing
nothing
nothing
nothing
nothing
nothing
nothing
nothing
nothing
nothing
nothing
nothing
nothing
nothing
nothing
nothing
nothing
nothing
nothing
nothing
nothing
nothing
nothing
nothing
nothing
nothing
nothing
nothing
nothing
nothing
nothing
nothing
nothing
nothing
nothing
nothing
nothing
nothing
nothing
nothing
nothing
nothing
nothing
nothing
nothing
nothing
nothing
nothing
nothing
nothing
nothing
nothing
nothing
nothing
nothing
nothing
nothing
nothing
nothing
nothing
nothing
nothing
nothing
nothing
nothing
nothing
nothing
nothing
nothing
nothing
nothing
nothing
nothing
nothing
nothing
nothing
nothing
nothing
nothing
nothing
nothing
nothing
nothing
nothing
nothing
nothing
nothing
nothing
nothing
nothing
nothing
nothing
nothing
nothing
nothing
nothing
nothing
nothing
nothing
nothing
nothing
nothing
nothing
nothing
nothing
nothing
nothing
nothing
nothing
nothing
nothing
nothing
nothing
nothing
nothing
nothing
nothing
nothing
nothing
nothing
nothing
nothing
nothing
nothing
nothing
nothing
nothing
nothing
nothing
nothing
nothing
nothing
nothing
nothing
nothing
nothing
nothing
nothing
nothing
nothing
nothing
nothing
nothing
nothing
nothing
nothing
nothing
nothing
nothing
nothing
nothing
nothing
nothing
nothing
nothing
nothing
nothing
nothing
nothing
nothing
nothing
nothing
nothing
nothing
nothing
nothing
nothing
nothing
nothing
nothing
nothing
nothing
nothing
nothing
nothing
nothing
nothing
nothing
nothing
nothing
nothing
nothing
nothing
nothing
nothing
nothing
nothing
nothing
nothing
nothing
nothing
nothing
nothing
nothing
nothing
nothing
nothing
nothing
nothing
nothing
nothing
nothing
nothing
nothing
nothing
nothing
nothing
nothing
nothing
nothing
nothing
nothing
nothing
nothing
nothing
nothing
nothing
nothing
nothing
nothing
nothing
nothing
nothing
nothing
nothing
nothing
nothing
nothing
nothing
nothing
nothing
nothing
nothing
nothing
nothing
nothing
nothing
nothing
nothing
nothing
nothing
nothing
nothing
nothing
nothing
nothing
nothing
nothing
nothing
nothing
nothing
nothing
nothing
nothing
nothing
nothing
nothing
nothing
nothing
nothing
nothing
nothing
nothing
nothing
nothing
nothing
nothing
nothing
nothing
nothing
nothing
nothing
nothing
nothing
nothing
nothing
nothing
nothing
nothing
nothing
nothing
nothing
nothing
nothing
nothing
nothing
nothing
nothing
nothing
nothing
nothing
nothing
nothing
nothing
nothing
nothing
nothing
nothing
nothing
nothing
nothing
nothing
nothing
nothing
nothing
nothing
nothing
nothing
nothing
nothing
nothing
nothing
nothing
nothing
nothing
nothing
nothing
nothing
nothing
nothing
nothing
nothing
nothing
nothing
nothing
nothing
nothing
nothing
nothing
nothing
nothing
nothing
nothing
nothing
nothing
nothing
nothing
nothing
nothing
nothing
nothing
nothing
nothing
nothing
nothing
nothing
nothing
nothing
nothing
nothing
nothing
nothing
nothing
nothing
nothing
nothing
nothing
nothing
nothing
nothing
nothing
nothing
nothing
nothing
nothing
nothing
nothing
nothing
nothing
nothing
nothing
nothing
nothing
nothing
nothing
nothing
nothing
nothing
nothing
nothing
nothing
nothing
nothing
nothing
nothing
nothing
nothing
nothing
nothing
nothing
nothing
nothing
nothing
nothing
nothing
nothing
nothing
nothing
nothing
nothing
nothing
nothing
nothing
nothing
nothing
nothing
nothing
nothing
nothing
nothing
nothing
nothing
nothing
nothing
nothing
nothing
nothing
nothing
nothing
nothing
nothing
nothing
nothing
nothing
nothing
nothing
nothing
nothing
nothing
nothing
nothing
nothing
nothing
nothing
nothing
nothing
nothing
nothing
nothing
nothing
nothing
nothing
nothing
nothing
nothing
nothing
nothing
nothing
nothing
nothing
nothing
nothing
nothing

dfbasis_scf=special
def2-QZVPP-RI-JK
def2-QZVPP-RI-JK
def2-QZVPP-RI-JK
def2-QZVPP-RI-JK
def2-QZVPP-RI-JK
def2-QZVPP-RI-JK
def2-QZVPP-RI-JK
def2-QZVPP-RI-JK
def2-QZVPP-RI-JK
def2-QZVPP-RI-JK
def2-QZVPP-RI-JK
def2-QZVPP-RI-JK
def2-QZVPP-RI-JK
def2-QZVPP-RI-JK
def2-QZVPP-RI-JK
def2-QZVPP-RI-JK
def2-QZVPP-RI-JK
def2-QZVPP-RI-JK
def2-QZVPP-RI-JK
def2-QZVPP-RI-JK
def2-QZVPP-RI-JK
def2-QZVPP-RI-JK
def2-QZVPP-RI-JK
def2-QZVPP-RI-JK
def2-QZVPP-RI-JK
def2-QZVPP-RI-JK
def2-QZVPP-RI-JK
def2-QZVPP-RI-JK
def2-QZVPP-RI-JK
def2-QZVPP-RI-JK
def2-QZVPP-RI-JK
def2-QZVPP-RI-JK
def2-QZVPP-RI-JK
def2-QZVPP-RI-JK
def2-QZVPP-RI-JK
def2-QZVPP-RI-JK
def2-QZVPP-RI-JK
def2-QZVPP-RI-JK
def2-QZVPP-RI-JK
def2-QZVPP-RI-JK
def2-QZVPP-RI-JK
def2-QZVPP-RI-JK
def2-QZVPP-RI-JK
def2-QZVPP-RI-JK
def2-QZVPP-RI-JK
def2-QZVPP-RI-JK
def2-QZVPP-RI-JK
def2-QZVPP-RI-JK
def2-QZVPP-RI-JK
def2-QZVPP-RI-JK
def2-QZVPP-RI-JK
def2-QZVPP-RI-JK
def2-QZVPP-RI-JK
def2-QZVPP-RI-JK
def2-QZVPP-RI-JK
def2-QZVPP-RI-JK
def2-QZVPP-RI-JK
def2-QZVPP-RI-JK
def2-QZVPP-RI-JK
def2-QZVPP-RI-JK
def2-QZVPP-RI-JK
def2-QZVPP-RI-JK
def2-QZVPP-RI-JK
def2-QZVPP-RI-JK
def2-QZVPP-RI-JK
def2-QZVPP-RI-JK
def2-QZVPP-RI-JK
def2-QZVPP-RI-JK
def2-QZVPP-RI-JK
def2-QZVPP-RI-JK
def2-QZVPP-RI-JK
def2-QZVPP-RI-JK
def2-QZVPP-RI-JK
def2-QZVPP-RI-JK
def2-QZVPP-RI-JK
def2-QZVPP-RI-JK
def2-QZVPP-RI-JK
def2-QZVPP-RI-JK
def2-QZVPP-RI-JK
def2-QZVPP-RI-JK
def2-QZVPP-RI-JK
def2-QZVPP-RI-JK
def2-QZVPP-RI-JK
def2-QZVPP-RI-JK
def2-QZVPP-RI-JK
def2-QZVPP-RI-JK
def2-QZVPP-RI-JK
def2-QZVPP-RI-JK
def2-QZVPP-RI-JK
def2-QZVPP-RI-JK
def2-QZVPP-RI-JK
def2-QZVPP-RI-JK
def2-QZVPP-RI-JK
def2-QZVPP-RI-JK
def2-QZVPP-RI-JK
def2-QZVPP-RI-JK
def2-QZVPP-RI-JK
def2-QZVPP-RI-JK
def2-QZVPP-RI-JK
def2-QZVPP-RI-JK
def2-QZVPP-RI-JK
def2-QZVPP-RI-JK
def2-QZVPP-RI-JK
def2-QZVPP-RI-JK
def2-QZVPP-RI-JK
def2-QZVPP-RI-JK
def2-QZVPP-RI-JK
def2-QZVPP-RI-JK
def2-QZVPP-RI-JK
def2-QZVPP-RI-JK
def2-QZVPP-RI-JK
def2-QZVPP-RI-JK
def2-QZVPP-RI-JK
def2-QZVPP-RI-JK
def2-QZVPP-RI-JK
def2-QZVPP-RI-JK
def2-QZVPP-RI-JK
nothing
nothing
nothing
nothing
nothing
nothing
nothing
nothing
nothing
nothing
nothing
nothing
nothing
nothing
nothing
nothing
nothing
nothing
nothing
nothing
nothing
nothing
nothing
nothing
nothing
nothing
nothing
nothing
nothing
nothing
nothing
nothing
nothing
nothing
nothing
nothing
nothing
nothing
nothing
nothing
nothing
nothing
nothing
nothing
nothing
nothing
nothing
nothing
nothing
nothing
nothing
nothing
nothing
nothing
nothing
nothing
nothing
nothing
nothing
nothing
nothing
nothing
nothing
nothing
nothing
nothing
nothing
nothing
nothing
nothing
nothing
nothing
nothing
nothing
nothing
nothing
nothing
nothing
nothing
nothing
nothing
nothing
nothing
nothing
nothing
nothing
nothing
nothing
nothing
nothing
nothing
nothing
nothing
nothing
nothing
nothing
nothing
nothing
nothing
nothing
nothing
nothing
nothing
nothing
nothing
nothing
nothing
nothing
nothing
nothing
nothing
nothing
nothing
nothing
nothing
nothing
nothing
nothing
nothing
nothing
nothing
nothing
nothing
nothing
nothing
nothing
nothing
nothing
nothing
nothing
nothing
nothing
nothing
nothing
nothing
nothing
nothing
nothing
nothing
nothing
nothing
nothing
nothing
nothing
nothing
nothing
nothing
nothing
nothing
nothing
nothing
nothing
nothing
nothing
nothing
nothing
nothing
nothing
nothing
nothing
nothing
nothing
nothing
nothing
nothing
nothing
nothing
nothing
nothing
nothing
nothing
nothing
nothing
nothing
nothing
nothing
nothing
nothing
nothing
nothing
nothing
nothing
nothing
nothing
nothing
nothing
nothing
nothing
nothing
nothing
nothing
nothing
nothing
nothing
nothing
nothing
nothing
nothing
nothing
nothing
nothing
nothing
nothing
nothing
nothing
nothing
nothing
nothing
nothing
nothing
nothing
nothing
nothing
nothing
nothing
nothing
nothing
nothing
nothing
nothing
nothing
nothing
nothing
nothing
nothing
nothing
nothing
nothing
nothing
nothing
nothing
nothing
nothing
nothing
nothing
nothing
nothing
nothing
nothing
nothing
nothing
nothing
nothing
nothing
nothing
nothing
nothing
nothing
nothing
nothing
nothing
nothing
nothing
nothing
nothing
nothing
nothing
nothing
nothing
nothing
nothing
nothing
nothing
nothing
nothing
nothing
nothing
nothing
nothing
nothing
nothing
nothing
nothing
nothing
nothing
nothing
nothing
nothing
nothing
nothing
nothing
nothing
nothing
nothing
nothing
nothing
nothing
nothing
nothing
nothing
nothing
nothing
nothing
nothing
nothing
nothing
nothing
nothing
nothing
nothing
nothing
nothing
nothing
nothing
nothing
nothing
nothing
nothing
nothing
nothing
nothing
nothing
nothing
nothing
nothing
nothing
nothing
nothing
nothing
nothing
nothing
nothing
nothing
nothing
nothing
nothing
nothing
nothing
nothing
nothing
nothing
nothing
nothing
nothing
nothing
nothing
nothing
nothing
nothing
nothing
nothing
nothing
nothing
nothing
nothing
nothing
nothing
nothing
nothing
nothing
nothing
nothing
nothing
nothing
nothing
nothing
nothing
nothing
nothing
nothing
nothing
nothing
nothing
nothing
nothing
nothing
nothing
nothing
nothing
nothing
nothing
nothing
nothing
nothing
nothing
nothing
nothing
nothing
nothing
nothing
nothing
nothing
nothing
nothing
nothing
nothing
nothing
nothing
nothing
nothing
nothing
nothing
nothing
nothing
nothing
nothing
nothing
nothing
nothing
nothing
nothing
nothing
nothing
nothing
nothing
nothing
nothing
nothing
nothing
nothing
nothing
nothing
nothing
nothing
nothing
nothing
nothing
nothing
nothing
nothing
nothing
nothing
nothing
nothing
nothing
nothing
nothing
nothing
nothing
nothing
nothing
nothing
nothing
nothing
nothing
nothing
nothing
nothing
nothing
nothing
nothing
nothing
nothing
nothing
nothing
nothing
nothing
nothing
nothing
nothing
nothing
nothing
nothing
nothing
nothing
nothing
nothing
nothing
nothing
nothing
nothing
nothing
nothing
nothing
nothing
nothing
nothing
nothing
nothing
nothing
nothing
nothing
nothing
nothing
nothing
nothing
nothing
nothing
nothing
nothing
nothing
nothing
nothing
nothing
nothing
nothing
nothing
nothing
nothing
nothing
nothing
nothing
nothing
nothing
nothing
nothing
nothing
nothing
nothing
nothing

ecp=special
none
none
none
none
none
none
none
none
none
none
none
none
none
none
none
none
none
none
none
none
none
none
none
none
none
none
none
none
none
none
none
none
none
none
none
none
none
none
none
none
none
none
none
none
none
none
none
none
none
none
none
none
none
none
none
none
none
none
none
none
none
none
none
none
none
none
none
none
none
none
none
none
none
none
none
none
none
none
none
none
none
none
none
none
none
none
none
none
none
none
none
none
none
none
none
none
none
none
none
none
none
none
none
none
none
none
none
none
none
none
none
none
none
none
none
none
none
ECP-12
ECP-12
ECP-12
ECP-12
ECP-12
ECP-12
ECP-12
ECP-12
ECP-12
ECP-12
ECP-12
ECP-12
ECP-12
ECP-12
ECP-12
ECP-12
ECP-12
ECP-12
ECP-12
ECP-12
ECP-12
ECP-12
ECP-12
ECP-12
ECP-12
ECP-12
ECP-12
ECP-12
ECP-12
ECP-12
ECP-12
ECP-12
ECP-12
ECP-12
ECP-12
ECP-12
ECP-12
ECP-12
ECP-12
ECP-12
ECP-12
ECP-12
ECP-12
ECP-12
ECP-12
ECP-12
ECP-12
ECP-12
ECP-12
ECP-12
ECP-12
ECP-12
ECP-12
ECP-12
ECP-12
ECP-12
ECP-12
ECP-12
ECP-12
ECP-12
ECP-12
ECP-12
ECP-12
ECP-12
ECP-12
ECP-12
ECP-12
ECP-12
ECP-12
ECP-12
ECP-12
ECP-12
ECP-12
ECP-12
ECP-12
ECP-12
ECP-12
ECP-12
ECP-12
ECP-12
ECP-12
ECP-12
ECP-12
ECP-12
ECP-12
ECP-12
ECP-12
ECP-12
ECP-12
ECP-12
ECP-12
ECP-12
ECP-12
ECP-12
ECP-12
ECP-12
ECP-12
ECP-12
ECP-12
ECP-12
ECP-12
ECP-12
ECP-12
ECP-12
ECP-12
ECP-12
ECP-12
ECP-12
ECP-12
ECP-12
ECP-12
ECP-12
ECP-12
ECP-12
ECP-12
ECP-12
ECP-12
ECP-12
ECP-12
ECP-12
ECP-12
ECP-12
ECP-12
ECP-12
ECP-12
ECP-12
ECP-12
ECP-12
ECP-12
ECP-12
ECP-12
ECP-12
ECP-12
ECP-12
ECP-12
ECP-12
ECP-12
ECP-12
ECP-12
ECP-12
ECP-12
ECP-12
ECP-12
ECP-12
ECP-12
ECP-12
ECP-12
ECP-12
ECP-12
ECP-12
ECP-12
ECP-12
ECP-12
ECP-12
ECP-12
ECP-12
ECP-12
ECP-12
ECP-12
ECP-12
ECP-12
ECP-12
ECP-12
ECP-12
ECP-12
ECP-12
ECP-12
ECP-12
ECP-12
ECP-12
ECP-12
ECP-12
ECP-12
ECP-12
ECP-12
ECP-12
ECP-12
ECP-12
ECP-12
ECP-12
ECP-12
ECP-12
ECP-12
ECP-12
ECP-12
ECP-12
ECP-12
ECP-12
ECP-12
ECP-12
ECP-12
ECP-12
ECP-12
ECP-12
ECP-12
ECP-12
ECP-12
ECP-12
ECP-12
ECP-12
ECP-12
ECP-12
ECP-12
ECP-12
ECP-12
ECP-12
ECP-12
ECP-12
ECP-12
ECP-12
ECP-12
ECP-12
ECP-12
ECP-12
ECP-12
ECP-12
ECP-12
ECP-12
ECP-12
ECP-12
ECP-12
ECP-12
ECP-12
ECP-12
ECP-12
ECP-12
ECP-12
ECP-12
ECP-12
ECP-12
ECP-12
ECP-12
ECP-12
ECP-12
ECP-12
ECP-12
ECP-12
ECP-12
ECP-12
ECP-12
ECP-12
ECP-12
ECP-12
ECP-12
ECP-12
ECP-12
ECP-12
ECP-12
ECP-12
ECP-12
ECP-12
ECP-12
ECP-12
ECP-12
ECP-12
ECP-12
ECP-12
ECP-12
ECP-12
ECP-12
ECP-12
ECP-12
ECP-12
ECP-12
ECP-12
ECP-12
ECP-12
ECP-12
ECP-12
ECP-12
ECP-12
ECP-12
ECP-12
ECP-12
ECP-12
ECP-12
ECP-12
ECP-12
ECP-12
ECP-12
ECP-12
ECP-12
ECP-12
ECP-12
ECP-12
ECP-12
ECP-12
ECP-12
ECP-12
ECP-12
ECP-12
ECP-12
ECP-12
ECP-12
ECP-12
ECP-12
ECP-12
ECP-12
ECP-12
ECP-12
ECP-12
ECP-12
ECP-12
ECP-12
ECP-12
ECP-12
ECP-12
ECP-12
ECP-12
ECP-12
ECP-12
ECP-12
ECP-12
ECP-12
ECP-12
ECP-12
ECP-12
ECP-12
ECP-12
ECP-12
ECP-12
ECP-12
ECP-12
ECP-12
ECP-12
ECP-12
ECP-12
ECP-12
ECP-12
ECP-12
ECP-12
ECP-12
ECP-12
ECP-12
ECP-12
ECP-12
ECP-12
ECP-12
ECP-12
ECP-12
ECP-12
ECP-12
ECP-12
ECP-12
ECP-12
ECP-12
ECP-12
ECP-12
ECP-12
ECP-12
ECP-12
ECP-12
ECP-12
ECP-12
ECP-12
ECP-12
ECP-12
ECP-12
ECP-12
ECP-12
ECP-12
ECP-12
ECP-12
ECP-12
ECP-12
ECP-12
ECP-12
ECP-12
ECP-12
ECP-12
ECP-12
ECP-12
ECP-12
ECP-12
ECP-12
ECP-12
ECP-12
ECP-12
ECP-12
ECP-12
ECP-12
ECP-12
ECP-12
ECP-12
ECP-12
ECP-12
ECP-12
ECP-12
ECP-12
ECP-12
ECP-12
ECP-12
ECP-12
ECP-12
ECP-12
ECP-12
ECP-12
ECP-12
ECP-12
ECP-12
ECP-12
ECP-12
ECP-12
ECP-12
ECP-12
ECP-12
ECP-12
ECP-12
ECP-12
ECP-12
ECP-12
ECP-12
ECP-12
ECP-12
ECP-12
ECP-12
ECP-12
ECP-12
ECP-12
ECP-12
ECP-12
ECP-12
ECP-12
ECP-12
ECP-12
ECP-12
ECP-12
ECP-12
ECP-12
ECP-12
ECP-12
ECP-12
ECP-12
ECP-12
ECP-12
ECP-12
ECP-12
ECP-12
ECP-12
ECP-12
ECP-12
ECP-12
ECP-12
ECP-12
ECP-12
ECP-12
ECP-12
ECP-12
ECP-12
ECP-12
ECP-12
ECP-12
ECP-12
ECP-12
ECP-12
ECP-12
ECP-12
ECP-12
ECP-12
ECP-12
ECP-12
ECP-12
ECP-12
ECP-12
ECP-12
ECP-12
ECP-12
ECP-12
ECP-12
ECP-12
ECP-12
ECP-12
ECP-12
ECP-12
ECP-12
ECP-12
ECP-12
ECP-12
ECP-12
ECP-12
ECP-12
ECP-12
ECP-12
ECP-12
ECP-12
ECP-12
ECP-12
ECP-12
ECP-12
ECP-12
ECP-12
ECP-12
ECP-12
ECP-12
ECP-12
ECP-12
ECP-12
ECP-12
ECP-12
ECP-12

unit=angs
geom=xyz
617
Mg38O79ECP500
O     0.00000000000    0.00000000000    0.00000000000
Mg    0.00000000000    0.00000000000    2.10322906414
Mg   -2.10322906414    0.00000000000    0.00000000000
Mg    0.00000000000    2.10322906414    0.00000000000
Mg    2.10322906414    0.00000000000    0.00000000000
Mg    0.00000000000   -2.10322906414    0.00000000000
Mg    0.00000000000    0.00000000000   -2.10322906414
O    -2.10322906414    0.00000000000    2.10322906414
O     0.00000000000    2.10322906414    2.10322906414
O     2.10322906414    0.00000000000    2.10322906414
O     0.00000000000   -2.10322906414    2.10322906414
O    -2.10322906414    2.10322906414    0.00000000000
O     2.10322906414    2.10322906414    0.00000000000
O     2.10322906414   -2.10322906414    0.00000000000
O    -2.10322906414   -2.10322906414    0.00000000000
O    -2.10322906414    0.00000000000   -2.10322906414
O     0.00000000000    2.10322906414   -2.10322906414
O     2.10322906414    0.00000000000   -2.10322906414
O     0.00000000000   -2.10322906414   -2.10322906414
Mg   -2.10322906414    2.10322906414    2.10322906414
Mg    2.10322906414    2.10322906414    2.10322906414
Mg    2.10322906414   -2.10322906414    2.10322906414
Mg   -2.10322906414   -2.10322906414    2.10322906414
Mg   -2.10322906414    2.10322906414   -2.10322906414
Mg    2.10322906414    2.10322906414   -2.10322906414
Mg    2.10322906414   -2.10322906414   -2.10322906414
Mg   -2.10322906414   -2.10322906414   -2.10322906414
O     0.00000000000    0.00000000000    4.20645812828
O    -4.20645812828    0.00000000000    0.00000000000
O     0.00000000000    4.20645812828    0.00000000000
O     4.20645812828    0.00000000000    0.00000000000
O     0.00000000000   -4.20645812828    0.00000000000
O     0.00000000000    0.00000000000   -4.20645812828
Mg   -2.10322906414    0.00000000000    4.20645812828
Mg    0.00000000000    2.10322906414    4.20645812828
Mg    2.10322906414    0.00000000000    4.20645812828
Mg    0.00000000000   -2.10322906414    4.20645812828
Mg   -4.20645812828    0.00000000000    2.10322906414
Mg    0.00000000000    4.20645812828    2.10322906414
Mg    4.20645812828    0.00000000000    2.10322906414
Mg    0.00000000000   -4.20645812828    2.10322906414
Mg   -4.20645812828    2.10322906414    0.00000000000
Mg   -2.10322906414    4.20645812828    0.00000000000
Mg    2.10322906414    4.20645812828    0.00000000000
Mg    4.20645812828    2.10322906414    0.00000000000
Mg    4.20645812828   -2.10322906414    0.00000000000
Mg    2.10322906414   -4.20645812828    0.00000000000
Mg   -2.10322906414   -4.20645812828    0.00000000000
Mg   -4.20645812828   -2.10322906414    0.00000000000
Mg   -4.20645812828    0.00000000000   -2.10322906414
Mg    0.00000000000    4.20645812828   -2.10322906414
Mg    4.20645812828    0.00000000000   -2.10322906414
Mg    0.00000000000   -4.20645812828   -2.10322906414
Mg   -2.10322906414    0.00000000000   -4.20645812828
Mg    0.00000000000    2.10322906414   -4.20645812828
Mg    2.10322906414    0.00000000000   -4.20645812828
Mg    0.00000000000   -2.10322906414   -4.20645812828
O    -2.10322906414    2.10322906414    4.20645812828
O     2.10322906414    2.10322906414    4.20645812828
O     2.10322906414   -2.10322906414    4.20645812828
O    -2.10322906414   -2.10322906414    4.20645812828
O    -4.20645812828    2.10322906414    2.10322906414
O    -2.10322906414    4.20645812828    2.10322906414
O     2.10322906414    4.20645812828    2.10322906414
O     4.20645812828    2.10322906414    2.10322906414
O     4.20645812828   -2.10322906414    2.10322906414
O     2.10322906414   -4.20645812828    2.10322906414
O    -2.10322906414   -4.20645812828    2.10322906414
O    -4.20645812828   -2.10322906414    2.10322906414
O    -4.20645812828    2.10322906414   -2.10322906414
O    -2.10322906414    4.20645812828   -2.10322906414
O     2.10322906414    4.20645812828   -2.10322906414
O     4.20645812828    2.10322906414   -2.10322906414
O     4.20645812828   -2.10322906414   -2.10322906414
O     2.10322906414   -4.20645812828   -2.10322906414
O    -2.10322906414   -4.20645812828   -2.10322906414
O    -4.20645812828   -2.10322906414   -2.10322906414
O    -2.10322906414    2.10322906414   -4.20645812828
O     2.10322906414    2.10322906414   -4.20645812828
O     2.10322906414   -2.10322906414   -4.20645812828
O    -2.10322906414   -2.10322906414   -4.20645812828
O    -4.20645812828    0.00000000000    4.20645812828
O     0.00000000000    4.20645812828    4.20645812828
O     4.20645812828    0.00000000000    4.20645812828
O     0.00000000000   -4.20645812828    4.20645812828
O    -4.20645812828    4.20645812828    0.00000000000
O     4.20645812828    4.20645812828    0.00000000000
O     4.20645812828   -4.20645812828    0.00000000000
O    -4.20645812828   -4.20645812828    0.00000000000
O    -4.20645812828    0.00000000000   -4.20645812828
O     0.00000000000    4.20645812828   -4.20645812828
O     4.20645812828    0.00000000000   -4.20645812828
O     0.00000000000   -4.20645812828   -4.20645812828
O    -2.10322906414    0.00000000000    6.30968719243
O     0.00000000000    2.10322906414    6.30968719243
O     2.10322906414    0.00000000000    6.30968719243
O     0.00000000000   -2.10322906414    6.30968719243
O    -6.30968719243    0.00000000000    2.10322906414
O     0.00000000000    6.30968719243    2.10322906414
O     6.30968719243    0.00000000000    2.10322906414
O     0.00000000000   -6.30968719243    2.10322906414
O    -6.30968719243    2.10322906414    0.00000000000
O    -2.10322906414    6.30968719243    0.00000000000
O     2.10322906414    6.30968719243    0.00000000000
O     6.30968719243    2.10322906414    0.00000000000
O     6.30968719243   -2.10322906414    0.00000000000
O     2.10322906414   -6.30968719243    0.00000000000
O    -2.10322906414   -6.30968719243    0.00000000000
O    -6.30968719243   -2.10322906414    0.00000000000
O    -6.30968719243    0.00000000000   -2.10322906414
O     0.00000000000    6.30968719243   -2.10322906414
O     6.30968719243    0.00000000000   -2.10322906414
O     0.00000000000   -6.30968719243   -2.10322906414
O    -2.10322906414    0.00000000000   -6.30968719243
O     0.00000000000    2.10322906414   -6.30968719243
O     2.10322906414    0.00000000000   -6.30968719243
O     0.00000000000   -2.10322906414   -6.30968719243
Mg    0.00000000000    0.00000000000    6.30968719243
Mg   -4.20645812828    2.10322906414    4.20645812828
Mg   -2.10322906414    4.20645812828    4.20645812828
Mg    2.10322906414    4.20645812828    4.20645812828
Mg    4.20645812828    2.10322906414    4.20645812828
Mg    4.20645812828   -2.10322906414    4.20645812828
Mg    2.10322906414   -4.20645812828    4.20645812828
Mg   -2.10322906414   -4.20645812828    4.20645812828
Mg   -4.20645812828   -2.10322906414    4.20645812828
Mg   -4.20645812828    4.20645812828    2.10322906414
Mg    4.20645812828    4.20645812828    2.10322906414
Mg    4.20645812828   -4.20645812828    2.10322906414
Mg   -4.20645812828   -4.20645812828    2.10322906414
Mg   -6.30968719243    0.00000000000    0.00000000000
Mg    0.00000000000    6.30968719243    0.00000000000
Mg    6.30968719243    0.00000000000    0.00000000000
Mg    0.00000000000   -6.30968719243    0.00000000000
Mg   -4.20645812828    4.20645812828   -2.10322906414
Mg    4.20645812828    4.20645812828   -2.10322906414
Mg    4.20645812828   -4.20645812828   -2.10322906414
Mg   -4.20645812828   -4.20645812828   -2.10322906414
Mg   -4.20645812828    2.10322906414   -4.20645812828
Mg   -2.10322906414    4.20645812828   -4.20645812828
Mg    2.10322906414    4.20645812828   -4.20645812828
Mg    4.20645812828    2.10322906414   -4.20645812828
Mg    4.20645812828   -2.10322906414   -4.20645812828
Mg    2.10322906414   -4.20645812828   -4.20645812828
Mg   -2.10322906414   -4.20645812828   -4.20645812828
Mg   -4.20645812828   -2.10322906414   -4.20645812828
Mg    0.00000000000    0.00000000000   -6.30968719243
Mg   -2.10322906414    2.10322906414    6.30968719243
Mg    2.10322906414    2.10322906414    6.30968719243
Mg    2.10322906414   -2.10322906414    6.30968719243
Mg   -2.10322906414   -2.10322906414    6.30968719243
Mg   -6.30968719243    2.10322906414    2.10322906414
Mg   -2.10322906414    6.30968719243    2.10322906414
Mg    2.10322906414    6.30968719243    2.10322906414
Mg    6.30968719243    2.10322906414    2.10322906414
Mg    6.30968719243   -2.10322906414    2.10322906414
Mg    2.10322906414   -6.30968719243    2.10322906414
Mg   -2.10322906414   -6.30968719243    2.10322906414
Mg   -6.30968719243   -2.10322906414    2.10322906414
Mg   -6.30968719243    2.10322906414   -2.10322906414
Mg   -2.10322906414    6.30968719243   -2.10322906414
Mg    2.10322906414    6.30968719243   -2.10322906414
Mg    6.30968719243    2.10322906414   -2.10322906414
Mg    6.30968719243   -2.10322906414   -2.10322906414
Mg    2.10322906414   -6.30968719243   -2.10322906414
Mg   -2.10322906414   -6.30968719243   -2.10322906414
Mg   -6.30968719243   -2.10322906414   -2.10322906414
Mg   -2.10322906414    2.10322906414   -6.30968719243
Mg    2.10322906414    2.10322906414   -6.30968719243
Mg    2.10322906414   -2.10322906414   -6.30968719243
Mg   -2.10322906414   -2.10322906414   -6.30968719243
Mg   -4.20645812828    0.00000000000    6.30968719243
Mg    0.00000000000    4.20645812828    6.30968719243
Mg    4.20645812828    0.00000000000    6.30968719243
Mg    0.00000000000   -4.20645812828    6.30968719243
Mg   -6.30968719243    0.00000000000    4.20645812828
Mg    0.00000000000    6.30968719243    4.20645812828
Mg    6.30968719243    0.00000000000    4.20645812828
Mg    0.00000000000   -6.30968719243    4.20645812828
Mg   -6.30968719243    4.20645812828    0.00000000000
Mg   -4.20645812828    6.30968719243    0.00000000000
Mg    4.20645812828    6.30968719243    0.00000000000
Mg    6.30968719243    4.20645812828    0.00000000000
Mg    6.30968719243   -4.20645812828    0.00000000000
Mg    4.20645812828   -6.30968719243    0.00000000000
Mg   -4.20645812828   -6.30968719243    0.00000000000
Mg   -6.30968719243   -4.20645812828    0.00000000000
Mg   -6.30968719243    0.00000000000   -4.20645812828
Mg    0.00000000000    6.30968719243   -4.20645812828
Mg    6.30968719243    0.00000000000   -4.20645812828
Mg    0.00000000000   -6.30968719243   -4.20645812828
Mg   -4.20645812828    0.00000000000   -6.30968719243
Mg    0.00000000000    4.20645812828   -6.30968719243
Mg    4.20645812828    0.00000000000   -6.30968719243
Mg    0.00000000000   -4.20645812828   -6.30968719243
Mg   -2.10322906414    0.00000000000    8.41291625657
Mg    0.00000000000    2.10322906414    8.41291625657
Mg    2.10322906414    0.00000000000    8.41291625657
Mg    0.00000000000   -2.10322906414    8.41291625657
Mg   -4.20645812828    4.20645812828    6.30968719243
Mg    4.20645812828    4.20645812828    6.30968719243
Mg    4.20645812828   -4.20645812828    6.30968719243
Mg   -4.20645812828   -4.20645812828    6.30968719243
Mg   -6.30968719243    4.20645812828    4.20645812828
Mg   -4.20645812828    6.30968719243    4.20645812828
Mg    4.20645812828    6.30968719243    4.20645812828
Mg    6.30968719243    4.20645812828    4.20645812828
Mg    6.30968719243   -4.20645812828    4.20645812828
Mg    4.20645812828   -6.30968719243    4.20645812828
Mg   -4.20645812828   -6.30968719243    4.20645812828
Mg   -6.30968719243   -4.20645812828    4.20645812828
Mg   -8.41291625657    0.00000000000    2.10322906414
Mg    0.00000000000    8.41291625657    2.10322906414
Mg    8.41291625657    0.00000000000    2.10322906414
Mg    0.00000000000   -8.41291625657    2.10322906414
Mg   -8.41291625657    2.10322906414    0.00000000000
Mg   -2.10322906414    8.41291625657    0.00000000000
Mg    2.10322906414    8.41291625657    0.00000000000
Mg    8.41291625657    2.10322906414    0.00000000000
Mg    8.41291625657   -2.10322906414    0.00000000000
Mg    2.10322906414   -8.41291625657    0.00000000000
Mg   -2.10322906414   -8.41291625657    0.00000000000
Mg   -8.41291625657   -2.10322906414    0.00000000000
Mg   -8.41291625657    0.00000000000   -2.10322906414
Mg    0.00000000000    8.41291625657   -2.10322906414
Mg    8.41291625657    0.00000000000   -2.10322906414
Mg    0.00000000000   -8.41291625657   -2.10322906414
Mg   -6.30968719243    4.20645812828   -4.20645812828
Mg   -4.20645812828    6.30968719243   -4.20645812828
Mg    4.20645812828    6.30968719243   -4.20645812828
Mg    6.30968719243    4.20645812828   -4.20645812828
Mg    6.30968719243   -4.20645812828   -4.20645812828
Mg    4.20645812828   -6.30968719243   -4.20645812828
Mg   -4.20645812828   -6.30968719243   -4.20645812828
Mg   -6.30968719243   -4.20645812828   -4.20645812828
Mg   -4.20645812828    4.20645812828   -6.30968719243
Mg    4.20645812828    4.20645812828   -6.30968719243
Mg    4.20645812828   -4.20645812828   -6.30968719243
Mg   -4.20645812828   -4.20645812828   -6.30968719243
Mg   -2.10322906414    0.00000000000   -8.41291625657
Mg    0.00000000000    2.10322906414   -8.41291625657
Mg    2.10322906414    0.00000000000   -8.41291625657
Mg    0.00000000000   -2.10322906414   -8.41291625657
Mg   -6.30968719243    2.10322906414    6.30968719243
Mg   -2.10322906414    6.30968719243    6.30968719243
Mg    2.10322906414    6.30968719243    6.30968719243
Mg    6.30968719243    2.10322906414    6.30968719243
Mg    6.30968719243   -2.10322906414    6.30968719243
Mg    2.10322906414   -6.30968719243    6.30968719243
Mg   -2.10322906414   -6.30968719243    6.30968719243
Mg   -6.30968719243   -2.10322906414    6.30968719243
Mg   -6.30968719243    6.30968719243    2.10322906414
Mg    6.30968719243    6.30968719243    2.10322906414
Mg    6.30968719243   -6.30968719243    2.10322906414
Mg   -6.30968719243   -6.30968719243    2.10322906414
Mg   -6.30968719243    6.30968719243   -2.10322906414
Mg    6.30968719243    6.30968719243   -2.10322906414
Mg    6.30968719243   -6.30968719243   -2.10322906414
Mg   -6.30968719243   -6.30968719243   -2.10322906414
Mg   -6.30968719243    2.10322906414   -6.30968719243
Mg   -2.10322906414    6.30968719243   -6.30968719243
Mg    2.10322906414    6.30968719243   -6.30968719243
Mg    6.30968719243    2.10322906414   -6.30968719243
Mg    6.30968719243   -2.10322906414   -6.30968719243
Mg    2.10322906414   -6.30968719243   -6.30968719243
Mg   -2.10322906414   -6.30968719243   -6.30968719243
Mg   -6.30968719243   -2.10322906414   -6.30968719243
Mg   -4.20645812828    2.10322906414    8.41291625657
Mg   -2.10322906414    4.20645812828    8.41291625657
Mg    2.10322906414    4.20645812828    8.41291625657
Mg    4.20645812828    2.10322906414    8.41291625657
Mg    4.20645812828   -2.10322906414    8.41291625657
Mg    2.10322906414   -4.20645812828    8.41291625657
Mg   -2.10322906414   -4.20645812828    8.41291625657
Mg   -4.20645812828   -2.10322906414    8.41291625657
Mg   -8.41291625657    2.10322906414    4.20645812828
Mg   -2.10322906414    8.41291625657    4.20645812828
Mg    2.10322906414    8.41291625657    4.20645812828
Mg    8.41291625657    2.10322906414    4.20645812828
Mg    8.41291625657   -2.10322906414    4.20645812828
Mg    2.10322906414   -8.41291625657    4.20645812828
Mg   -2.10322906414   -8.41291625657    4.20645812828
Mg   -8.41291625657   -2.10322906414    4.20645812828
Mg   -8.41291625657    4.20645812828    2.10322906414
Mg   -4.20645812828    8.41291625657    2.10322906414
Mg    4.20645812828    8.41291625657    2.10322906414
Mg    8.41291625657    4.20645812828    2.10322906414
Mg    8.41291625657   -4.20645812828    2.10322906414
Mg    4.20645812828   -8.41291625657    2.10322906414
Mg   -4.20645812828   -8.41291625657    2.10322906414
Mg   -8.41291625657   -4.20645812828    2.10322906414
Mg   -8.41291625657    4.20645812828   -2.10322906414
Mg   -4.20645812828    8.41291625657   -2.10322906414
Mg    4.20645812828    8.41291625657   -2.10322906414
Mg    8.41291625657    4.20645812828   -2.10322906414
Mg    8.41291625657   -4.20645812828   -2.10322906414
Mg    4.20645812828   -8.41291625657   -2.10322906414
Mg   -4.20645812828   -8.41291625657   -2.10322906414
Mg   -8.41291625657   -4.20645812828   -2.10322906414
Mg   -8.41291625657    2.10322906414   -4.20645812828
Mg   -2.10322906414    8.41291625657   -4.20645812828
Mg    2.10322906414    8.41291625657   -4.20645812828
Mg    8.41291625657    2.10322906414   -4.20645812828
Mg    8.41291625657   -2.10322906414   -4.20645812828
Mg    2.10322906414   -8.41291625657   -4.20645812828
Mg   -2.10322906414   -8.41291625657   -4.20645812828
Mg   -8.41291625657   -2.10322906414   -4.20645812828
Mg   -4.20645812828    2.10322906414   -8.41291625657
Mg   -2.10322906414    4.20645812828   -8.41291625657
Mg    2.10322906414    4.20645812828   -8.41291625657
Mg    4.20645812828    2.10322906414   -8.41291625657
Mg    4.20645812828   -2.10322906414   -8.41291625657
Mg    2.10322906414   -4.20645812828   -8.41291625657
Mg   -2.10322906414   -4.20645812828   -8.41291625657
Mg   -4.20645812828   -2.10322906414   -8.41291625657
Mg    0.00000000000    0.00000000000   10.51614532071
Mg   -6.30968719243    0.00000000000    8.41291625657
Mg    0.00000000000    6.30968719243    8.41291625657
Mg    6.30968719243    0.00000000000    8.41291625657
Mg    0.00000000000   -6.30968719243    8.41291625657
Mg   -8.41291625657    0.00000000000    6.30968719243
Mg    0.00000000000    8.41291625657    6.30968719243
Mg    8.41291625657    0.00000000000    6.30968719243
Mg    0.00000000000   -8.41291625657    6.30968719243
Mg  -10.51614532071    0.00000000000    0.00000000000
Mg   -8.41291625657    6.30968719243    0.00000000000
Mg   -6.30968719243    8.41291625657    0.00000000000
Mg    0.00000000000   10.51614532071    0.00000000000
Mg    6.30968719243    8.41291625657    0.00000000000
Mg    8.41291625657    6.30968719243    0.00000000000
Mg   10.51614532071    0.00000000000    0.00000000000
Mg    8.41291625657   -6.30968719243    0.00000000000
Mg    6.30968719243   -8.41291625657    0.00000000000
Mg    0.00000000000  -10.51614532071    0.00000000000
Mg   -6.30968719243   -8.41291625657    0.00000000000
Mg   -8.41291625657   -6.30968719243    0.00000000000
Mg   -8.41291625657    0.00000000000   -6.30968719243
Mg    0.00000000000    8.41291625657   -6.30968719243
Mg    8.41291625657    0.00000000000   -6.30968719243
Mg    0.00000000000   -8.41291625657   -6.30968719243
Mg   -6.30968719243    0.00000000000   -8.41291625657
Mg    0.00000000000    6.30968719243   -8.41291625657
Mg    6.30968719243    0.00000000000   -8.41291625657
Mg    0.00000000000   -6.30968719243   -8.41291625657
Mg    0.00000000000    0.00000000000  -10.51614532071
Mg   -2.10322906414    2.10322906414   10.51614532071
Mg    2.10322906414    2.10322906414   10.51614532071
Mg    2.10322906414   -2.10322906414   10.51614532071
Mg   -2.10322906414   -2.10322906414   10.51614532071
Mg   -6.30968719243    6.30968719243    6.30968719243
Mg    6.30968719243    6.30968719243    6.30968719243
Mg    6.30968719243   -6.30968719243    6.30968719243
Mg   -6.30968719243   -6.30968719243    6.30968719243
Mg  -10.51614532071    2.10322906414    2.10322906414
Mg   -2.10322906414   10.51614532071    2.10322906414
Mg    2.10322906414   10.51614532071    2.10322906414
Mg   10.51614532071    2.10322906414    2.10322906414
Mg   10.51614532071   -2.10322906414    2.10322906414
Mg    2.10322906414  -10.51614532071    2.10322906414
Mg   -2.10322906414  -10.51614532071    2.10322906414
Mg  -10.51614532071   -2.10322906414    2.10322906414
Mg  -10.51614532071    2.10322906414   -2.10322906414
Mg   -2.10322906414   10.51614532071   -2.10322906414
Mg    2.10322906414   10.51614532071   -2.10322906414
Mg   10.51614532071    2.10322906414   -2.10322906414
Mg   10.51614532071   -2.10322906414   -2.10322906414
Mg    2.10322906414  -10.51614532071   -2.10322906414
Mg   -2.10322906414  -10.51614532071   -2.10322906414
Mg  -10.51614532071   -2.10322906414   -2.10322906414
Mg   -6.30968719243    6.30968719243   -6.30968719243
Mg    6.30968719243    6.30968719243   -6.30968719243
Mg    6.30968719243   -6.30968719243   -6.30968719243
Mg   -6.30968719243   -6.30968719243   -6.30968719243
Mg   -2.10322906414    2.10322906414  -10.51614532071
Mg    2.10322906414    2.10322906414  -10.51614532071
Mg    2.10322906414   -2.10322906414  -10.51614532071
Mg   -2.10322906414   -2.10322906414  -10.51614532071
Mg   -4.20645812828    0.00000000000   10.51614532071
Mg    0.00000000000    4.20645812828   10.51614532071
Mg    4.20645812828    0.00000000000   10.51614532071
Mg    0.00000000000   -4.20645812828   10.51614532071
Mg   -6.30968719243    4.20645812828    8.41291625657
Mg   -4.20645812828    6.30968719243    8.41291625657
Mg    4.20645812828    6.30968719243    8.41291625657
Mg    6.30968719243    4.20645812828    8.41291625657
Mg    6.30968719243   -4.20645812828    8.41291625657
Mg    4.20645812828   -6.30968719243    8.41291625657
Mg   -4.20645812828   -6.30968719243    8.41291625657
Mg   -6.30968719243   -4.20645812828    8.41291625657
Mg   -8.41291625657    4.20645812828    6.30968719243
Mg   -4.20645812828    8.41291625657    6.30968719243
Mg    4.20645812828    8.41291625657    6.30968719243
Mg    8.41291625657    4.20645812828    6.30968719243
Mg    8.41291625657   -4.20645812828    6.30968719243
Mg    4.20645812828   -8.41291625657    6.30968719243
Mg   -4.20645812828   -8.41291625657    6.30968719243
Mg   -8.41291625657   -4.20645812828    6.30968719243
Mg  -10.51614532071    0.00000000000    4.20645812828
Mg   -8.41291625657    6.30968719243    4.20645812828
Mg   -6.30968719243    8.41291625657    4.20645812828
Mg    0.00000000000   10.51614532071    4.20645812828
Mg    6.30968719243    8.41291625657    4.20645812828
Mg    8.41291625657    6.30968719243    4.20645812828
Mg   10.51614532071    0.00000000000    4.20645812828
Mg    8.41291625657   -6.30968719243    4.20645812828
Mg    6.30968719243   -8.41291625657    4.20645812828
Mg    0.00000000000  -10.51614532071    4.20645812828
Mg   -6.30968719243   -8.41291625657    4.20645812828
Mg   -8.41291625657   -6.30968719243    4.20645812828
Mg  -10.51614532071    4.20645812828    0.00000000000
Mg   -4.20645812828   10.51614532071    0.00000000000
Mg    4.20645812828   10.51614532071    0.00000000000
Mg   10.51614532071    4.20645812828    0.00000000000
Mg   10.51614532071   -4.20645812828    0.00000000000
Mg    4.20645812828  -10.51614532071    0.00000000000
Mg   -4.20645812828  -10.51614532071    0.00000000000
Mg  -10.51614532071   -4.20645812828    0.00000000000
Mg  -10.51614532071    0.00000000000   -4.20645812828
Mg   -8.41291625657    6.30968719243   -4.20645812828
Mg   -6.30968719243    8.41291625657   -4.20645812828
Mg    0.00000000000   10.51614532071   -4.20645812828
Mg    6.30968719243    8.41291625657   -4.20645812828
Mg    8.41291625657    6.30968719243   -4.20645812828
Mg   10.51614532071    0.00000000000   -4.20645812828
Mg    8.41291625657   -6.30968719243   -4.20645812828
Mg    6.30968719243   -8.41291625657   -4.20645812828
Mg    0.00000000000  -10.51614532071   -4.20645812828
Mg   -6.30968719243   -8.41291625657   -4.20645812828
Mg   -8.41291625657   -6.30968719243   -4.20645812828
Mg   -8.41291625657    4.20645812828   -6.30968719243
Mg   -4.20645812828    8.41291625657   -6.30968719243
Mg    4.20645812828    8.41291625657   -6.30968719243
Mg    8.41291625657    4.20645812828   -6.30968719243
Mg    8.41291625657   -4.20645812828   -6.30968719243
Mg    4.20645812828   -8.41291625657   -6.30968719243
Mg   -4.20645812828   -8.41291625657   -6.30968719243
Mg   -8.41291625657   -4.20645812828   -6.30968719243
Mg   -6.30968719243    4.20645812828   -8.41291625657
Mg   -4.20645812828    6.30968719243   -8.41291625657
Mg    4.20645812828    6.30968719243   -8.41291625657
Mg    6.30968719243    4.20645812828   -8.41291625657
Mg    6.30968719243   -4.20645812828   -8.41291625657
Mg    4.20645812828   -6.30968719243   -8.41291625657
Mg   -4.20645812828   -6.30968719243   -8.41291625657
Mg   -6.30968719243   -4.20645812828   -8.41291625657
Mg   -4.20645812828    0.00000000000  -10.51614532071
Mg    0.00000000000    4.20645812828  -10.51614532071
Mg    4.20645812828    0.00000000000  -10.51614532071
Mg    0.00000000000   -4.20645812828  -10.51614532071
Mg   -4.20645812828    4.20645812828   10.51614532071
Mg    4.20645812828    4.20645812828   10.51614532071
Mg    4.20645812828   -4.20645812828   10.51614532071
Mg   -4.20645812828   -4.20645812828   10.51614532071
Mg   -8.41291625657    2.10322906414    8.41291625657
Mg   -2.10322906414    8.41291625657    8.41291625657
Mg    2.10322906414    8.41291625657    8.41291625657
Mg    8.41291625657    2.10322906414    8.41291625657
Mg    8.41291625657   -2.10322906414    8.41291625657
Mg    2.10322906414   -8.41291625657    8.41291625657
Mg   -2.10322906414   -8.41291625657    8.41291625657
Mg   -8.41291625657   -2.10322906414    8.41291625657
Mg  -10.51614532071    4.20645812828    4.20645812828
Mg   -4.20645812828   10.51614532071    4.20645812828
Mg    4.20645812828   10.51614532071    4.20645812828
Mg   10.51614532071    4.20645812828    4.20645812828
Mg   10.51614532071   -4.20645812828    4.20645812828
Mg    4.20645812828  -10.51614532071    4.20645812828
Mg   -4.20645812828  -10.51614532071    4.20645812828
Mg  -10.51614532071   -4.20645812828    4.20645812828
Mg   -8.41291625657    8.41291625657    2.10322906414
Mg    8.41291625657    8.41291625657    2.10322906414
Mg    8.41291625657   -8.41291625657    2.10322906414
Mg   -8.41291625657   -8.41291625657    2.10322906414
Mg   -8.41291625657    8.41291625657   -2.10322906414
Mg    8.41291625657    8.41291625657   -2.10322906414
Mg    8.41291625657   -8.41291625657   -2.10322906414
Mg   -8.41291625657   -8.41291625657   -2.10322906414
Mg  -10.51614532071    4.20645812828   -4.20645812828
Mg   -4.20645812828   10.51614532071   -4.20645812828
Mg    4.20645812828   10.51614532071   -4.20645812828
Mg   10.51614532071    4.20645812828   -4.20645812828
Mg   10.51614532071   -4.20645812828   -4.20645812828
Mg    4.20645812828  -10.51614532071   -4.20645812828
Mg   -4.20645812828  -10.51614532071   -4.20645812828
Mg  -10.51614532071   -4.20645812828   -4.20645812828
Mg   -8.41291625657    2.10322906414   -8.41291625657
Mg   -2.10322906414    8.41291625657   -8.41291625657
Mg    2.10322906414    8.41291625657   -8.41291625657
Mg    8.41291625657    2.10322906414   -8.41291625657
Mg    8.41291625657   -2.10322906414   -8.41291625657
Mg    2.10322906414   -8.41291625657   -8.41291625657
Mg   -2.10322906414   -8.41291625657   -8.41291625657
Mg   -8.41291625657   -2.10322906414   -8.41291625657
Mg   -4.20645812828    4.20645812828  -10.51614532071
Mg    4.20645812828    4.20645812828  -10.51614532071
Mg    4.20645812828   -4.20645812828  -10.51614532071
Mg   -4.20645812828   -4.20645812828  -10.51614532071
Mg   -6.30968719243    2.10322906414   10.51614532071
Mg   -2.10322906414    6.30968719243   10.51614532071
Mg    2.10322906414    6.30968719243   10.51614532071
Mg    6.30968719243    2.10322906414   10.51614532071
Mg    6.30968719243   -2.10322906414   10.51614532071
Mg    2.10322906414   -6.30968719243   10.51614532071
Mg   -2.10322906414   -6.30968719243   10.51614532071
Mg   -6.30968719243   -2.10322906414   10.51614532071
Mg  -10.51614532071    2.10322906414    6.30968719243
Mg   -2.10322906414   10.51614532071    6.30968719243
Mg    2.10322906414   10.51614532071    6.30968719243
Mg   10.51614532071    2.10322906414    6.30968719243
Mg   10.51614532071   -2.10322906414    6.30968719243
Mg    2.10322906414  -10.51614532071    6.30968719243
Mg   -2.10322906414  -10.51614532071    6.30968719243
Mg  -10.51614532071   -2.10322906414    6.30968719243
Mg  -10.51614532071    6.30968719243    2.10322906414
Mg   -6.30968719243   10.51614532071    2.10322906414
Mg    6.30968719243   10.51614532071    2.10322906414
Mg   10.51614532071    6.30968719243    2.10322906414
Mg   10.51614532071   -6.30968719243    2.10322906414
Mg    6.30968719243  -10.51614532071    2.10322906414
Mg   -6.30968719243  -10.51614532071    2.10322906414
Mg  -10.51614532071   -6.30968719243    2.10322906414
Mg  -10.51614532071    6.30968719243   -2.10322906414
Mg   -6.30968719243   10.51614532071   -2.10322906414
Mg    6.30968719243   10.51614532071   -2.10322906414
Mg   10.51614532071    6.30968719243   -2.10322906414
Mg   10.51614532071   -6.30968719243   -2.10322906414
Mg    6.30968719243  -10.51614532071   -2.10322906414
Mg   -6.30968719243  -10.51614532071   -2.10322906414
Mg  -10.51614532071   -6.30968719243   -2.10322906414
Mg  -10.51614532071    2.10322906414   -6.30968719243
Mg   -2.10322906414   10.51614532071   -6.30968719243
Mg    2.10322906414   10.51614532071   -6.30968719243
Mg   10.51614532071    2.10322906414   -6.30968719243
Mg   10.51614532071   -2.10322906414   -6.30968719243
Mg    2.10322906414  -10.51614532071   -6.30968719243
Mg   -2.10322906414  -10.51614532071   -6.30968719243
Mg  -10.51614532071   -2.10322906414   -6.30968719243
Mg   -6.30968719243    2.10322906414  -10.51614532071
Mg   -2.10322906414    6.30968719243  -10.51614532071
Mg    2.10322906414    6.30968719243  -10.51614532071
Mg    6.30968719243    2.10322906414  -10.51614532071
Mg    6.30968719243   -2.10322906414  -10.51614532071
Mg    2.10322906414   -6.30968719243  -10.51614532071
Mg   -2.10322906414   -6.30968719243  -10.51614532071
Mg   -6.30968719243   -2.10322906414  -10.51614532071
Mg   -2.10322906414    0.00000000000   12.61937438485
Mg    0.00000000000    2.10322906414   12.61937438485
Mg    2.10322906414    0.00000000000   12.61937438485
Mg    0.00000000000   -2.10322906414   12.61937438485
Mg  -12.61937438485    0.00000000000    2.10322906414
Mg    0.00000000000   12.61937438485    2.10322906414
Mg   12.61937438485    0.00000000000    2.10322906414
Mg    0.00000000000  -12.61937438485    2.10322906414
Mg  -12.61937438485    2.10322906414    0.00000000000
Mg   -2.10322906414   12.61937438485    0.00000000000
Mg    2.10322906414   12.61937438485    0.00000000000
Mg   12.61937438485    2.10322906414    0.00000000000
Mg   12.61937438485   -2.10322906414    0.00000000000
Mg    2.10322906414  -12.61937438485    0.00000000000
Mg   -2.10322906414  -12.61937438485    0.00000000000
Mg  -12.61937438485   -2.10322906414    0.00000000000
Mg  -12.61937438485    0.00000000000   -2.10322906414
Mg    0.00000000000   12.61937438485   -2.10322906414
Mg   12.61937438485    0.00000000000   -2.10322906414
Mg    0.00000000000  -12.61937438485   -2.10322906414
Mg   -2.10322906414    0.00000000000  -12.61937438485
Mg    0.00000000000    2.10322906414  -12.61937438485
Mg    2.10322906414    0.00000000000  -12.61937438485
Mg    0.00000000000   -2.10322906414  -12.61937438485
Mg   -4.20645812828    2.10322906414   12.61937438485
Mg   -2.10322906414    4.20645812828   12.61937438485
Mg    2.10322906414    4.20645812828   12.61937438485
Mg    4.20645812828    2.10322906414   12.61937438485
Mg    4.20645812828   -2.10322906414   12.61937438485
Mg    2.10322906414   -4.20645812828   12.61937438485
Mg   -2.10322906414   -4.20645812828   12.61937438485
Mg   -4.20645812828   -2.10322906414   12.61937438485
Mg  -12.61937438485    2.10322906414    4.20645812828
Mg   -2.10322906414   12.61937438485    4.20645812828
Mg    2.10322906414   12.61937438485    4.20645812828
Mg   12.61937438485    2.10322906414    4.20645812828
Mg   12.61937438485   -2.10322906414    4.20645812828
Mg    2.10322906414  -12.61937438485    4.20645812828
Mg   -2.10322906414  -12.61937438485    4.20645812828
Mg  -12.61937438485   -2.10322906414    4.20645812828
Mg  -12.61937438485    4.20645812828    2.10322906414
Mg   -4.20645812828   12.61937438485    2.10322906414
Mg    4.20645812828   12.61937438485    2.10322906414
Mg   12.61937438485    4.20645812828    2.10322906414
Mg   12.61937438485   -4.20645812828    2.10322906414
Mg    4.20645812828  -12.61937438485    2.10322906414
Mg   -4.20645812828  -12.61937438485    2.10322906414
Mg  -12.61937438485   -4.20645812828    2.10322906414
Mg  -12.61937438485    4.20645812828   -2.10322906414
Mg   -4.20645812828   12.61937438485   -2.10322906414
Mg    4.20645812828   12.61937438485   -2.10322906414
Mg   12.61937438485    4.20645812828   -2.10322906414
Mg   12.61937438485   -4.20645812828   -2.10322906414
Mg    4.20645812828  -12.61937438485   -2.10322906414
Mg   -4.20645812828  -12.61937438485   -2.10322906414
Mg  -12.61937438485   -4.20645812828   -2.10322906414
Mg  -12.61937438485    2.10322906414   -4.20645812828
Mg   -2.10322906414   12.61937438485   -4.20645812828
Mg    2.10322906414   12.61937438485   -4.20645812828
Mg   12.61937438485    2.10322906414   -4.20645812828
Mg   12.61937438485   -2.10322906414   -4.20645812828
Mg    2.10322906414  -12.61937438485   -4.20645812828
Mg   -2.10322906414  -12.61937438485   -4.20645812828
Mg  -12.61937438485   -2.10322906414   -4.20645812828
Mg   -4.20645812828    2.10322906414  -12.61937438485
Mg   -2.10322906414    4.20645812828  -12.61937438485
Mg    2.10322906414    4.20645812828  -12.61937438485
Mg    4.20645812828    2.10322906414  -12.61937438485
Mg    4.20645812828   -2.10322906414  -12.61937438485
Mg    2.10322906414   -4.20645812828  -12.61937438485
Mg   -2.10322906414   -4.20645812828  -12.61937438485
Mg   -4.20645812828   -2.10322906414  -12.61937438485

qmmm=Amber
pointcharges
12032
      0.00000000000    0.00000000000    6.30968719243    2.00000000000
     -4.20645812828    2.10322906414    4.20645812828    2.00000000000
     -2.10322906414    4.20645812828    4.20645812828    2.00000000000
      2.10322906414    4.20645812828    4.20645812828    2.00000000000
      4.20645812828    2.10322906414    4.20645812828    2.00000000000
      4.20645812828   -2.10322906414    4.20645812828    2.00000000000
      2.10322906414   -4.20645812828    4.20645812828    2.00000000000
     -2.10322906414   -4.20645812828    4.20645812828    2.00000000000
     -4.20645812828   -2.10322906414    4.20645812828    2.00000000000
     -4.20645812828    4.20645812828    2.10322906414    2.00000000000
      4.20645812828    4.20645812828    2.10322906414    2.00000000000
      4.20645812828   -4.20645812828    2.10322906414    2.00000000000
     -4.20645812828   -4.20645812828    2.10322906414    2.00000000000
     -6.30968719243    0.00000000000    0.00000000000    2.00000000000
      0.00000000000    6.30968719243    0.00000000000    2.00000000000
      6.30968719243    0.00000000000    0.00000000000    2.00000000000
      0.00000000000   -6.30968719243    0.00000000000    2.00000000000
     -4.20645812828    4.20645812828   -2.10322906414    2.00000000000
      4.20645812828    4.20645812828   -2.10322906414    2.00000000000
      4.20645812828   -4.20645812828   -2.10322906414    2.00000000000
     -4.20645812828   -4.20645812828   -2.10322906414    2.00000000000
     -4.20645812828    2.10322906414   -4.20645812828    2.00000000000
     -2.10322906414    4.20645812828   -4.20645812828    2.00000000000
      2.10322906414    4.20645812828   -4.20645812828    2.00000000000
      4.20645812828    2.10322906414   -4.20645812828    2.00000000000
      4.20645812828   -2.10322906414   -4.20645812828    2.00000000000
      2.10322906414   -4.20645812828   -4.20645812828    2.00000000000
     -2.10322906414   -4.20645812828   -4.20645812828    2.00000000000
     -4.20645812828   -2.10322906414   -4.20645812828    2.00000000000
      0.00000000000    0.00000000000   -6.30968719243    2.00000000000
     -2.10322906414    2.10322906414    6.30968719243    2.00000000000
      2.10322906414    2.10322906414    6.30968719243    2.00000000000
      2.10322906414   -2.10322906414    6.30968719243    2.00000000000
     -2.10322906414   -2.10322906414    6.30968719243    2.00000000000
     -6.30968719243    2.10322906414    2.10322906414    2.00000000000
     -2.10322906414    6.30968719243    2.10322906414    2.00000000000
      2.10322906414    6.30968719243    2.10322906414    2.00000000000
      6.30968719243    2.10322906414    2.10322906414    2.00000000000
      6.30968719243   -2.10322906414    2.10322906414    2.00000000000
      2.10322906414   -6.30968719243    2.10322906414    2.00000000000
     -2.10322906414   -6.30968719243    2.10322906414    2.00000000000
     -6.30968719243   -2.10322906414    2.10322906414    2.00000000000
     -6.30968719243    2.10322906414   -2.10322906414    2.00000000000
     -2.10322906414    6.30968719243   -2.10322906414    2.00000000000
      2.10322906414    6.30968719243   -2.10322906414    2.00000000000
      6.30968719243    2.10322906414   -2.10322906414    2.00000000000
      6.30968719243   -2.10322906414   -2.10322906414    2.00000000000
      2.10322906414   -6.30968719243   -2.10322906414    2.00000000000
     -2.10322906414   -6.30968719243   -2.10322906414    2.00000000000
     -6.30968719243   -2.10322906414   -2.10322906414    2.00000000000
     -2.10322906414    2.10322906414   -6.30968719243    2.00000000000
      2.10322906414    2.10322906414   -6.30968719243    2.00000000000
      2.10322906414   -2.10322906414   -6.30968719243    2.00000000000
     -2.10322906414   -2.10322906414   -6.30968719243    2.00000000000
     -4.20645812828    4.20645812828    4.20645812828   -2.00000000000
      4.20645812828    4.20645812828    4.20645812828   -2.00000000000
      4.20645812828   -4.20645812828    4.20645812828   -2.00000000000
     -4.20645812828   -4.20645812828    4.20645812828   -2.00000000000
     -4.20645812828    4.20645812828   -4.20645812828   -2.00000000000
      4.20645812828    4.20645812828   -4.20645812828   -2.00000000000
      4.20645812828   -4.20645812828   -4.20645812828   -2.00000000000
     -4.20645812828   -4.20645812828   -4.20645812828   -2.00000000000
     -4.20645812828    0.00000000000    6.30968719243    2.00000000000
      0.00000000000    4.20645812828    6.30968719243    2.00000000000
      4.20645812828    0.00000000000    6.30968719243    2.00000000000
      0.00000000000   -4.20645812828    6.30968719243    2.00000000000
     -6.30968719243    0.00000000000    4.20645812828    2.00000000000
      0.00000000000    6.30968719243    4.20645812828    2.00000000000
      6.30968719243    0.00000000000    4.20645812828    2.00000000000
      0.00000000000   -6.30968719243    4.20645812828    2.00000000000
     -6.30968719243    4.20645812828    0.00000000000    2.00000000000
     -4.20645812828    6.30968719243    0.00000000000    2.00000000000
      4.20645812828    6.30968719243    0.00000000000    2.00000000000
      6.30968719243    4.20645812828    0.00000000000    2.00000000000
      6.30968719243   -4.20645812828    0.00000000000    2.00000000000
      4.20645812828   -6.30968719243    0.00000000000    2.00000000000
     -4.20645812828   -6.30968719243    0.00000000000    2.00000000000
     -6.30968719243   -4.20645812828    0.00000000000    2.00000000000
     -6.30968719243    0.00000000000   -4.20645812828    2.00000000000
      0.00000000000    6.30968719243   -4.20645812828    2.00000000000
      6.30968719243    0.00000000000   -4.20645812828    2.00000000000
      0.00000000000   -6.30968719243   -4.20645812828    2.00000000000
     -4.20645812828    0.00000000000   -6.30968719243    2.00000000000
      0.00000000000    4.20645812828   -6.30968719243    2.00000000000
      4.20645812828    0.00000000000   -6.30968719243    2.00000000000
      0.00000000000   -4.20645812828   -6.30968719243    2.00000000000
     -4.20645812828    2.10322906414    6.30968719243   -2.00000000000
     -2.10322906414    4.20645812828    6.30968719243   -2.00000000000
      2.10322906414    4.20645812828    6.30968719243   -2.00000000000
      4.20645812828    2.10322906414    6.30968719243   -2.00000000000
      4.20645812828   -2.10322906414    6.30968719243   -2.00000000000
      2.10322906414   -4.20645812828    6.30968719243   -2.00000000000
     -2.10322906414   -4.20645812828    6.30968719243   -2.00000000000
     -4.20645812828   -2.10322906414    6.30968719243   -2.00000000000
     -6.30968719243    2.10322906414    4.20645812828   -2.00000000000
     -2.10322906414    6.30968719243    4.20645812828   -2.00000000000
      2.10322906414    6.30968719243    4.20645812828   -2.00000000000
      6.30968719243    2.10322906414    4.20645812828   -2.00000000000
      6.30968719243   -2.10322906414    4.20645812828   -2.00000000000
      2.10322906414   -6.30968719243    4.20645812828   -2.00000000000
     -2.10322906414   -6.30968719243    4.20645812828   -2.00000000000
     -6.30968719243   -2.10322906414    4.20645812828   -2.00000000000
     -6.30968719243    4.20645812828    2.10322906414   -2.00000000000
     -4.20645812828    6.30968719243    2.10322906414   -2.00000000000
      4.20645812828    6.30968719243    2.10322906414   -2.00000000000
      6.30968719243    4.20645812828    2.10322906414   -2.00000000000
      6.30968719243   -4.20645812828    2.10322906414   -2.00000000000
      4.20645812828   -6.30968719243    2.10322906414   -2.00000000000
     -4.20645812828   -6.30968719243    2.10322906414   -2.00000000000
     -6.30968719243   -4.20645812828    2.10322906414   -2.00000000000
     -6.30968719243    4.20645812828   -2.10322906414   -2.00000000000
     -4.20645812828    6.30968719243   -2.10322906414   -2.00000000000
      4.20645812828    6.30968719243   -2.10322906414   -2.00000000000
      6.30968719243    4.20645812828   -2.10322906414   -2.00000000000
      6.30968719243   -4.20645812828   -2.10322906414   -2.00000000000
      4.20645812828   -6.30968719243   -2.10322906414   -2.00000000000
     -4.20645812828   -6.30968719243   -2.10322906414   -2.00000000000
     -6.30968719243   -4.20645812828   -2.10322906414   -2.00000000000
     -6.30968719243    2.10322906414   -4.20645812828   -2.00000000000
     -2.10322906414    6.30968719243   -4.20645812828   -2.00000000000
      2.10322906414    6.30968719243   -4.20645812828   -2.00000000000
      6.30968719243    2.10322906414   -4.20645812828   -2.00000000000
      6.30968719243   -2.10322906414   -4.20645812828   -2.00000000000
      2.10322906414   -6.30968719243   -4.20645812828   -2.00000000000
     -2.10322906414   -6.30968719243   -4.20645812828   -2.00000000000
     -6.30968719243   -2.10322906414   -4.20645812828   -2.00000000000
     -4.20645812828    2.10322906414   -6.30968719243   -2.00000000000
     -2.10322906414    4.20645812828   -6.30968719243   -2.00000000000
      2.10322906414    4.20645812828   -6.30968719243   -2.00000000000
      4.20645812828    2.10322906414   -6.30968719243   -2.00000000000
      4.20645812828   -2.10322906414   -6.30968719243   -2.00000000000
      2.10322906414   -4.20645812828   -6.30968719243   -2.00000000000
     -2.10322906414   -4.20645812828   -6.30968719243   -2.00000000000
     -4.20645812828   -2.10322906414   -6.30968719243   -2.00000000000
      0.00000000000    0.00000000000    8.41291625657   -2.00000000000
     -8.41291625657    0.00000000000    0.00000000000   -2.00000000000
      0.00000000000    8.41291625657    0.00000000000   -2.00000000000
      8.41291625657    0.00000000000    0.00000000000   -2.00000000000
      0.00000000000   -8.41291625657    0.00000000000   -2.00000000000
      0.00000000000    0.00000000000   -8.41291625657   -2.00000000000
     -2.10322906414    0.00000000000    8.41291625657    2.00000000000
      0.00000000000    2.10322906414    8.41291625657    2.00000000000
      2.10322906414    0.00000000000    8.41291625657    2.00000000000
      0.00000000000   -2.10322906414    8.41291625657    2.00000000000
     -4.20645812828    4.20645812828    6.30968719243    2.00000000000
      4.20645812828    4.20645812828    6.30968719243    2.00000000000
      4.20645812828   -4.20645812828    6.30968719243    2.00000000000
     -4.20645812828   -4.20645812828    6.30968719243    2.00000000000
     -6.30968719243    4.20645812828    4.20645812828    2.00000000000
     -4.20645812828    6.30968719243    4.20645812828    2.00000000000
      4.20645812828    6.30968719243    4.20645812828    2.00000000000
      6.30968719243    4.20645812828    4.20645812828    2.00000000000
      6.30968719243   -4.20645812828    4.20645812828    2.00000000000
      4.20645812828   -6.30968719243    4.20645812828    2.00000000000
     -4.20645812828   -6.30968719243    4.20645812828    2.00000000000
     -6.30968719243   -4.20645812828    4.20645812828    2.00000000000
     -8.41291625657    0.00000000000    2.10322906414    2.00000000000
      0.00000000000    8.41291625657    2.10322906414    2.00000000000
      8.41291625657    0.00000000000    2.10322906414    2.00000000000
      0.00000000000   -8.41291625657    2.10322906414    2.00000000000
     -8.41291625657    2.10322906414    0.00000000000    2.00000000000
     -2.10322906414    8.41291625657    0.00000000000    2.00000000000
      2.10322906414    8.41291625657    0.00000000000    2.00000000000
      8.41291625657    2.10322906414    0.00000000000    2.00000000000
      8.41291625657   -2.10322906414    0.00000000000    2.00000000000
      2.10322906414   -8.41291625657    0.00000000000    2.00000000000
     -2.10322906414   -8.41291625657    0.00000000000    2.00000000000
     -8.41291625657   -2.10322906414    0.00000000000    2.00000000000
     -8.41291625657    0.00000000000   -2.10322906414    2.00000000000
      0.00000000000    8.41291625657   -2.10322906414    2.00000000000
      8.41291625657    0.00000000000   -2.10322906414    2.00000000000
      0.00000000000   -8.41291625657   -2.10322906414    2.00000000000
     -6.30968719243    4.20645812828   -4.20645812828    2.00000000000
     -4.20645812828    6.30968719243   -4.20645812828    2.00000000000
      4.20645812828    6.30968719243   -4.20645812828    2.00000000000
      6.30968719243    4.20645812828   -4.20645812828    2.00000000000
      6.30968719243   -4.20645812828   -4.20645812828    2.00000000000
      4.20645812828   -6.30968719243   -4.20645812828    2.00000000000
     -4.20645812828   -6.30968719243   -4.20645812828    2.00000000000
     -6.30968719243   -4.20645812828   -4.20645812828    2.00000000000
     -4.20645812828    4.20645812828   -6.30968719243    2.00000000000
      4.20645812828    4.20645812828   -6.30968719243    2.00000000000
      4.20645812828   -4.20645812828   -6.30968719243    2.00000000000
     -4.20645812828   -4.20645812828   -6.30968719243    2.00000000000
     -2.10322906414    0.00000000000   -8.41291625657    2.00000000000
      0.00000000000    2.10322906414   -8.41291625657    2.00000000000
      2.10322906414    0.00000000000   -8.41291625657    2.00000000000
      0.00000000000   -2.10322906414   -8.41291625657    2.00000000000
     -2.10322906414    2.10322906414    8.41291625657   -2.00000000000
      2.10322906414    2.10322906414    8.41291625657   -2.00000000000
      2.10322906414   -2.10322906414    8.41291625657   -2.00000000000
     -2.10322906414   -2.10322906414    8.41291625657   -2.00000000000
     -6.30968719243    0.00000000000    6.30968719243   -2.00000000000
      0.00000000000    6.30968719243    6.30968719243   -2.00000000000
      6.30968719243    0.00000000000    6.30968719243   -2.00000000000
      0.00000000000   -6.30968719243    6.30968719243   -2.00000000000
     -8.41291625657    2.10322906414    2.10322906414   -2.00000000000
     -2.10322906414    8.41291625657    2.10322906414   -2.00000000000
      2.10322906414    8.41291625657    2.10322906414   -2.00000000000
      8.41291625657    2.10322906414    2.10322906414   -2.00000000000
      8.41291625657   -2.10322906414    2.10322906414   -2.00000000000
      2.10322906414   -8.41291625657    2.10322906414   -2.00000000000
     -2.10322906414   -8.41291625657    2.10322906414   -2.00000000000
     -8.41291625657   -2.10322906414    2.10322906414   -2.00000000000
     -6.30968719243    6.30968719243    0.00000000000   -2.00000000000
      6.30968719243    6.30968719243    0.00000000000   -2.00000000000
      6.30968719243   -6.30968719243    0.00000000000   -2.00000000000
     -6.30968719243   -6.30968719243    0.00000000000   -2.00000000000
     -8.41291625657    2.10322906414   -2.10322906414   -2.00000000000
     -2.10322906414    8.41291625657   -2.10322906414   -2.00000000000
      2.10322906414    8.41291625657   -2.10322906414   -2.00000000000
      8.41291625657    2.10322906414   -2.10322906414   -2.00000000000
      8.41291625657   -2.10322906414   -2.10322906414   -2.00000000000
      2.10322906414   -8.41291625657   -2.10322906414   -2.00000000000
     -2.10322906414   -8.41291625657   -2.10322906414   -2.00000000000
     -8.41291625657   -2.10322906414   -2.10322906414   -2.00000000000
     -6.30968719243    0.00000000000   -6.30968719243   -2.00000000000
      0.00000000000    6.30968719243   -6.30968719243   -2.00000000000
      6.30968719243    0.00000000000   -6.30968719243   -2.00000000000
      0.00000000000   -6.30968719243   -6.30968719243   -2.00000000000
     -2.10322906414    2.10322906414   -8.41291625657   -2.00000000000
      2.10322906414    2.10322906414   -8.41291625657   -2.00000000000
      2.10322906414   -2.10322906414   -8.41291625657   -2.00000000000
     -2.10322906414   -2.10322906414   -8.41291625657   -2.00000000000
     -6.30968719243    2.10322906414    6.30968719243    2.00000000000
     -2.10322906414    6.30968719243    6.30968719243    2.00000000000
      2.10322906414    6.30968719243    6.30968719243    2.00000000000
      6.30968719243    2.10322906414    6.30968719243    2.00000000000
      6.30968719243   -2.10322906414    6.30968719243    2.00000000000
      2.10322906414   -6.30968719243    6.30968719243    2.00000000000
     -2.10322906414   -6.30968719243    6.30968719243    2.00000000000
     -6.30968719243   -2.10322906414    6.30968719243    2.00000000000
     -6.30968719243    6.30968719243    2.10322906414    2.00000000000
      6.30968719243    6.30968719243    2.10322906414    2.00000000000
      6.30968719243   -6.30968719243    2.10322906414    2.00000000000
     -6.30968719243   -6.30968719243    2.10322906414    2.00000000000
     -6.30968719243    6.30968719243   -2.10322906414    2.00000000000
      6.30968719243    6.30968719243   -2.10322906414    2.00000000000
      6.30968719243   -6.30968719243   -2.10322906414    2.00000000000
     -6.30968719243   -6.30968719243   -2.10322906414    2.00000000000
     -6.30968719243    2.10322906414   -6.30968719243    2.00000000000
     -2.10322906414    6.30968719243   -6.30968719243    2.00000000000
      2.10322906414    6.30968719243   -6.30968719243    2.00000000000
      6.30968719243    2.10322906414   -6.30968719243    2.00000000000
      6.30968719243   -2.10322906414   -6.30968719243    2.00000000000
      2.10322906414   -6.30968719243   -6.30968719243    2.00000000000
     -2.10322906414   -6.30968719243   -6.30968719243    2.00000000000
     -6.30968719243   -2.10322906414   -6.30968719243    2.00000000000
     -4.20645812828    0.00000000000    8.41291625657   -2.00000000000
      0.00000000000    4.20645812828    8.41291625657   -2.00000000000
      4.20645812828    0.00000000000    8.41291625657   -2.00000000000
      0.00000000000   -4.20645812828    8.41291625657   -2.00000000000
     -8.41291625657    0.00000000000    4.20645812828   -2.00000000000
      0.00000000000    8.41291625657    4.20645812828   -2.00000000000
      8.41291625657    0.00000000000    4.20645812828   -2.00000000000
      0.00000000000   -8.41291625657    4.20645812828   -2.00000000000
     -8.41291625657    4.20645812828    0.00000000000   -2.00000000000
     -4.20645812828    8.41291625657    0.00000000000   -2.00000000000
      4.20645812828    8.41291625657    0.00000000000   -2.00000000000
      8.41291625657    4.20645812828    0.00000000000   -2.00000000000
      8.41291625657   -4.20645812828    0.00000000000   -2.00000000000
      4.20645812828   -8.41291625657    0.00000000000   -2.00000000000
     -4.20645812828   -8.41291625657    0.00000000000   -2.00000000000
     -8.41291625657   -4.20645812828    0.00000000000   -2.00000000000
     -8.41291625657    0.00000000000   -4.20645812828   -2.00000000000
      0.00000000000    8.41291625657   -4.20645812828   -2.00000000000
      8.41291625657    0.00000000000   -4.20645812828   -2.00000000000
      0.00000000000   -8.41291625657   -4.20645812828   -2.00000000000
     -4.20645812828    0.00000000000   -8.41291625657   -2.00000000000
      0.00000000000    4.20645812828   -8.41291625657   -2.00000000000
      4.20645812828    0.00000000000   -8.41291625657   -2.00000000000
      0.00000000000   -4.20645812828   -8.41291625657   -2.00000000000
     -4.20645812828    2.10322906414    8.41291625657    2.00000000000
     -2.10322906414    4.20645812828    8.41291625657    2.00000000000
      2.10322906414    4.20645812828    8.41291625657    2.00000000000
      4.20645812828    2.10322906414    8.41291625657    2.00000000000
      4.20645812828   -2.10322906414    8.41291625657    2.00000000000
      2.10322906414   -4.20645812828    8.41291625657    2.00000000000
     -2.10322906414   -4.20645812828    8.41291625657    2.00000000000
     -4.20645812828   -2.10322906414    8.41291625657    2.00000000000
     -8.41291625657    2.10322906414    4.20645812828    2.00000000000
     -2.10322906414    8.41291625657    4.20645812828    2.00000000000
      2.10322906414    8.41291625657    4.20645812828    2.00000000000
      8.41291625657    2.10322906414    4.20645812828    2.00000000000
      8.41291625657   -2.10322906414    4.20645812828    2.00000000000
      2.10322906414   -8.41291625657    4.20645812828    2.00000000000
     -2.10322906414   -8.41291625657    4.20645812828    2.00000000000
     -8.41291625657   -2.10322906414    4.20645812828    2.00000000000
     -8.41291625657    4.20645812828    2.10322906414    2.00000000000
     -4.20645812828    8.41291625657    2.10322906414    2.00000000000
      4.20645812828    8.41291625657    2.10322906414    2.00000000000
      8.41291625657    4.20645812828    2.10322906414    2.00000000000
      8.41291625657   -4.20645812828    2.10322906414    2.00000000000
      4.20645812828   -8.41291625657    2.10322906414    2.00000000000
     -4.20645812828   -8.41291625657    2.10322906414    2.00000000000
     -8.41291625657   -4.20645812828    2.10322906414    2.00000000000
     -8.41291625657    4.20645812828   -2.10322906414    2.00000000000
     -4.20645812828    8.41291625657   -2.10322906414    2.00000000000
      4.20645812828    8.41291625657   -2.10322906414    2.00000000000
      8.41291625657    4.20645812828   -2.10322906414    2.00000000000
      8.41291625657   -4.20645812828   -2.10322906414    2.00000000000
      4.20645812828   -8.41291625657   -2.10322906414    2.00000000000
     -4.20645812828   -8.41291625657   -2.10322906414    2.00000000000
     -8.41291625657   -4.20645812828   -2.10322906414    2.00000000000
     -8.41291625657    2.10322906414   -4.20645812828    2.00000000000
     -2.10322906414    8.41291625657   -4.20645812828    2.00000000000
      2.10322906414    8.41291625657   -4.20645812828    2.00000000000
      8.41291625657    2.10322906414   -4.20645812828    2.00000000000
      8.41291625657   -2.10322906414   -4.20645812828    2.00000000000
      2.10322906414   -8.41291625657   -4.20645812828    2.00000000000
     -2.10322906414   -8.41291625657   -4.20645812828    2.00000000000
     -8.41291625657   -2.10322906414   -4.20645812828    2.00000000000
     -4.20645812828    2.10322906414   -8.41291625657    2.00000000000
     -2.10322906414    4.20645812828   -8.41291625657    2.00000000000
      2.10322906414    4.20645812828   -8.41291625657    2.00000000000
      4.20645812828    2.10322906414   -8.41291625657    2.00000000000
      4.20645812828   -2.10322906414   -8.41291625657    2.00000000000
      2.10322906414   -4.20645812828   -8.41291625657    2.00000000000
     -2.10322906414   -4.20645812828   -8.41291625657    2.00000000000
     -4.20645812828   -2.10322906414   -8.41291625657    2.00000000000
     -6.30968719243    4.20645812828    6.30968719243   -2.00000000000
     -4.20645812828    6.30968719243    6.30968719243   -2.00000000000
      4.20645812828    6.30968719243    6.30968719243   -2.00000000000
      6.30968719243    4.20645812828    6.30968719243   -2.00000000000
      6.30968719243   -4.20645812828    6.30968719243   -2.00000000000
      4.20645812828   -6.30968719243    6.30968719243   -2.00000000000
     -4.20645812828   -6.30968719243    6.30968719243   -2.00000000000
     -6.30968719243   -4.20645812828    6.30968719243   -2.00000000000
     -6.30968719243    6.30968719243    4.20645812828   -2.00000000000
      6.30968719243    6.30968719243    4.20645812828   -2.00000000000
      6.30968719243   -6.30968719243    4.20645812828   -2.00000000000
     -6.30968719243   -6.30968719243    4.20645812828   -2.00000000000
     -6.30968719243    6.30968719243   -4.20645812828   -2.00000000000
      6.30968719243    6.30968719243   -4.20645812828   -2.00000000000
      6.30968719243   -6.30968719243   -4.20645812828   -2.00000000000
     -6.30968719243   -6.30968719243   -4.20645812828   -2.00000000000
     -6.30968719243    4.20645812828   -6.30968719243   -2.00000000000
     -4.20645812828    6.30968719243   -6.30968719243   -2.00000000000
      4.20645812828    6.30968719243   -6.30968719243   -2.00000000000
      6.30968719243    4.20645812828   -6.30968719243   -2.00000000000
      6.30968719243   -4.20645812828   -6.30968719243   -2.00000000000
      4.20645812828   -6.30968719243   -6.30968719243   -2.00000000000
     -4.20645812828   -6.30968719243   -6.30968719243   -2.00000000000
     -6.30968719243   -4.20645812828   -6.30968719243   -2.00000000000
     -4.20645812828    4.20645812828    8.41291625657   -2.00000000000
      4.20645812828    4.20645812828    8.41291625657   -2.00000000000
      4.20645812828   -4.20645812828    8.41291625657   -2.00000000000
     -4.20645812828   -4.20645812828    8.41291625657   -2.00000000000
     -8.41291625657    4.20645812828    4.20645812828   -2.00000000000
     -4.20645812828    8.41291625657    4.20645812828   -2.00000000000
      4.20645812828    8.41291625657    4.20645812828   -2.00000000000
      8.41291625657    4.20645812828    4.20645812828   -2.00000000000
      8.41291625657   -4.20645812828    4.20645812828   -2.00000000000
      4.20645812828   -8.41291625657    4.20645812828   -2.00000000000
     -4.20645812828   -8.41291625657    4.20645812828   -2.00000000000
     -8.41291625657   -4.20645812828    4.20645812828   -2.00000000000
[...]
 262  Mg ecp-12              
 263  Mg ecp-12              
 264  Mg ecp-12              
 265  Mg ecp-12              
 266  Mg ecp-12              
 267  Mg ecp-12              
 268  Mg ecp-12              
 269  Mg ecp-12              
 270  Mg ecp-12              
 271  Mg ecp-12              
 272  Mg ecp-12              
 273  Mg ecp-12              
 274  Mg ecp-12              
 275  Mg ecp-12              
 276  Mg ecp-12              
 277  Mg ecp-12              
 278  Mg ecp-12              
 279  Mg ecp-12              
 280  Mg ecp-12              
 281  Mg ecp-12              
 282  Mg ecp-12              
 283  Mg ecp-12              
 284  Mg ecp-12              
 285  Mg ecp-12              
 286  Mg ecp-12              
 287  Mg ecp-12              
 288  Mg ecp-12              
 289  Mg ecp-12              
 290  Mg ecp-12              
 291  Mg ecp-12              
 292  Mg ecp-12              
 293  Mg ecp-12              
 294  Mg ecp-12              
 295  Mg ecp-12              
 296  Mg ecp-12              
 297  Mg ecp-12              
 298  Mg ecp-12              
 299  Mg ecp-12              
 300  Mg ecp-12              
 301  Mg ecp-12              
 302  Mg ecp-12              
 303  Mg ecp-12              
 304  Mg ecp-12              
 305  Mg ecp-12              
 306  Mg ecp-12              
 307  Mg ecp-12              
 308  Mg ecp-12              
 309  Mg ecp-12              
 310  Mg ecp-12              
 311  Mg ecp-12              
 312  Mg ecp-12              
 313  Mg ecp-12              
 314  Mg ecp-12              
 315  Mg ecp-12              
 316  Mg ecp-12              
 317  Mg ecp-12              
 318  Mg ecp-12              
 319  Mg ecp-12              
 320  Mg ecp-12              
 321  Mg ecp-12              
 322  Mg ecp-12              
 323  Mg ecp-12              
 324  Mg ecp-12              
 325  Mg ecp-12              
 326  Mg ecp-12              
 327  Mg ecp-12              
 328  Mg ecp-12              
 329  Mg ecp-12              
 330  Mg ecp-12              
 331  Mg ecp-12              
 332  Mg ecp-12              
 333  Mg ecp-12              
 334  Mg ecp-12              
 335  Mg ecp-12              
 336  Mg ecp-12              
 337  Mg ecp-12              
 338  Mg ecp-12              
 339  Mg ecp-12              
 340  Mg ecp-12              
 341  Mg ecp-12              
 342  Mg ecp-12              
 343  Mg ecp-12              
 344  Mg ecp-12              
 345  Mg ecp-12              
 346  Mg ecp-12              
 347  Mg ecp-12              
 348  Mg ecp-12              
 349  Mg ecp-12              
 350  Mg ecp-12              
 351  Mg ecp-12              
 352  Mg ecp-12              
 353  Mg ecp-12              
 354  Mg ecp-12              
 355  Mg ecp-12              
 356  Mg ecp-12              
 357  Mg ecp-12              
 358  Mg ecp-12              
 359  Mg ecp-12              
 360  Mg ecp-12              
 361  Mg ecp-12              
 362  Mg ecp-12              
 363  Mg ecp-12              
 364  Mg ecp-12              
 365  Mg ecp-12              
 366  Mg ecp-12              
 367  Mg ecp-12              
 368  Mg ecp-12              
 369  Mg ecp-12              
 370  Mg ecp-12              
 371  Mg ecp-12              
 372  Mg ecp-12              
 373  Mg ecp-12              
 374  Mg ecp-12              
 375  Mg ecp-12              
 376  Mg ecp-12              
 377  Mg ecp-12              
 378  Mg ecp-12              
 379  Mg ecp-12              
 380  Mg ecp-12              
 381  Mg ecp-12              
 382  Mg ecp-12              
 383  Mg ecp-12              
 384  Mg ecp-12              
 385  Mg ecp-12              
 386  Mg ecp-12              
 387  Mg ecp-12              
 388  Mg ecp-12              
 389  Mg ecp-12              
 390  Mg ecp-12              
 391  Mg ecp-12              
 392  Mg ecp-12              
 393  Mg ecp-12              
 394  Mg ecp-12              
 395  Mg ecp-12              
 396  Mg ecp-12              
 397  Mg ecp-12              
 398  Mg ecp-12              
 399  Mg ecp-12              
 400  Mg ecp-12              
 401  Mg ecp-12              
 402  Mg ecp-12              
 403  Mg ecp-12              
 404  Mg ecp-12              
 405  Mg ecp-12              
 406  Mg ecp-12              
 407  Mg ecp-12              
 408  Mg ecp-12              
 409  Mg ecp-12              
 410  Mg ecp-12              
 411  Mg ecp-12              
 412  Mg ecp-12              
 413  Mg ecp-12              
 414  Mg ecp-12              
 415  Mg ecp-12              
 416  Mg ecp-12              
 417  Mg ecp-12              
 418  Mg ecp-12              
 419  Mg ecp-12              
 420  Mg ecp-12              
 421  Mg ecp-12              
 422  Mg ecp-12              
 423  Mg ecp-12              
 424  Mg ecp-12              
 425  Mg ecp-12              
 426  Mg ecp-12              
 427  Mg ecp-12              
 428  Mg ecp-12              
 429  Mg ecp-12              
 430  Mg ecp-12              
 431  Mg ecp-12              
 432  Mg ecp-12              
 433  Mg ecp-12              
 434  Mg ecp-12              
 435  Mg ecp-12              
 436  Mg ecp-12              
 437  Mg ecp-12              
 438  Mg ecp-12              
 439  Mg ecp-12              
 440  Mg ecp-12              
 441  Mg ecp-12              
 442  Mg ecp-12              
 443  Mg ecp-12              
 444  Mg ecp-12              
 445  Mg ecp-12              
 446  Mg ecp-12              
 447  Mg ecp-12              
 448  Mg ecp-12              
 449  Mg ecp-12              
 450  Mg ecp-12              
 451  Mg ecp-12              
 452  Mg ecp-12              
 453  Mg ecp-12              
 454  Mg ecp-12              
 455  Mg ecp-12              
 456  Mg ecp-12              
 457  Mg ecp-12              
 458  Mg ecp-12              
 459  Mg ecp-12              
 460  Mg ecp-12              
 461  Mg ecp-12              
 462  Mg ecp-12              
 463  Mg ecp-12              
 464  Mg ecp-12              
 465  Mg ecp-12              
 466  Mg ecp-12              
 467  Mg ecp-12              
 468  Mg ecp-12              
 469  Mg ecp-12              
 470  Mg ecp-12              
 471  Mg ecp-12              
 472  Mg ecp-12              
 473  Mg ecp-12              
 474  Mg ecp-12              
 475  Mg ecp-12              
 476  Mg ecp-12              
 477  Mg ecp-12              
 478  Mg ecp-12              
 479  Mg ecp-12              
 480  Mg ecp-12              
 481  Mg ecp-12              
 482  Mg ecp-12              
 483  Mg ecp-12              
 484  Mg ecp-12              
 485  Mg ecp-12              
 486  Mg ecp-12              
 487  Mg ecp-12              
 488  Mg ecp-12              
 489  Mg ecp-12              
 490  Mg ecp-12              
 491  Mg ecp-12              
 492  Mg ecp-12              
 493  Mg ecp-12              
 494  Mg ecp-12              
 495  Mg ecp-12              
 496  Mg ecp-12              
 497  Mg ecp-12              
 498  Mg ecp-12              
 499  Mg ecp-12              
 500  Mg ecp-12              
 501  Mg ecp-12              
 502  Mg ecp-12              
 503  Mg ecp-12              
 504  Mg ecp-12              
 505  Mg ecp-12              
 506  Mg ecp-12              
 507  Mg ecp-12              
 508  Mg ecp-12              
 509  Mg ecp-12              
 510  Mg ecp-12              
 511  Mg ecp-12              
 512  Mg ecp-12              
 513  Mg ecp-12              
 514  Mg ecp-12              
 515  Mg ecp-12              
 516  Mg ecp-12              
 517  Mg ecp-12              
 518  Mg ecp-12              
 519  Mg ecp-12              
 520  Mg ecp-12              
 521  Mg ecp-12              
 522  Mg ecp-12              
 523  Mg ecp-12              
 524  Mg ecp-12              
 525  Mg ecp-12              
 526  Mg ecp-12              
 527  Mg ecp-12              
 528  Mg ecp-12              
 529  Mg ecp-12              
 530  Mg ecp-12              
 531  Mg ecp-12              
 532  Mg ecp-12              
 533  Mg ecp-12              
 534  Mg ecp-12              
 535  Mg ecp-12              
 536  Mg ecp-12              
 537  Mg ecp-12              
 538  Mg ecp-12              
 539  Mg ecp-12              
 540  Mg ecp-12              
 541  Mg ecp-12              
 542  Mg ecp-12              
 543  Mg ecp-12              
 544  Mg ecp-12              
 545  Mg ecp-12              
 546  Mg ecp-12              
 547  Mg ecp-12              
 548  Mg ecp-12              
 549  Mg ecp-12              
 550  Mg ecp-12              
 551  Mg ecp-12              
 552  Mg ecp-12              
 553  Mg ecp-12              
 554  Mg ecp-12              
 555  Mg ecp-12              
 556  Mg ecp-12              
 557  Mg ecp-12              
 558  Mg ecp-12              
 559  Mg ecp-12              
 560  Mg ecp-12              
 561  Mg ecp-12              
 562  Mg ecp-12              
 563  Mg ecp-12              
 564  Mg ecp-12              
 565  Mg ecp-12              
 566  Mg ecp-12              
 567  Mg ecp-12              
 568  Mg ecp-12              
 569  Mg ecp-12              
 570  Mg ecp-12              
 571  Mg ecp-12              
 572  Mg ecp-12              
 573  Mg ecp-12              
 574  Mg ecp-12              
 575  Mg ecp-12              
 576  Mg ecp-12              
 577  Mg ecp-12              
 578  Mg ecp-12              
 579  Mg ecp-12              
 580  Mg ecp-12              
 581  Mg ecp-12              
 582  Mg ecp-12              
 583  Mg ecp-12              
 584  Mg ecp-12              
 585  Mg ecp-12              
 586  Mg ecp-12              
 587  Mg ecp-12              
 588  Mg ecp-12              
 589  Mg ecp-12              
 590  Mg ecp-12              
 591  Mg ecp-12              
 592  Mg ecp-12              
 593  Mg ecp-12              
 594  Mg ecp-12              
 595  Mg ecp-12              
 596  Mg ecp-12              
 597  Mg ecp-12              
 598  Mg ecp-12              
 599  Mg ecp-12              
 600  Mg ecp-12              
 601  Mg ecp-12              
 602  Mg ecp-12              
 603  Mg ecp-12              
 604  Mg ecp-12              
 605  Mg ecp-12              
 606  Mg ecp-12              
 607  Mg ecp-12              
 608  Mg ecp-12              
 609  Mg ecp-12              
 610  Mg ecp-12              
 611  Mg ecp-12              
 612  Mg ecp-12              
 613  Mg ecp-12              
 614  Mg ecp-12              
 615  Mg ecp-12              
 616  Mg ecp-12              
 617  Mg ecp-12              
 
 Generating atomic densities for the SCF calculation...
 CPU time [min]:     0.121                   Wall time [min]:     0.159
 
 Character table for point group C1:
 
          E  
    A     1
 
 Number of basis functions per irrep:
    A    6897
 
 
 Density functional: wB97X
 Constructing integration grid for DFT...
 Angular integration grid: adaptive 590-point Lebedev quadrature
 Radial integration grid: Log3 quadrature
 Total number of grid points: 11032670    
 Range-separation parameter: 0.3000
 CPU time [min]:   831.625                   Wall time [min]:    11.268
 
 Calculation of overlap integrals...
 CPU time [min]:   831.649                   Wall time [min]:    11.278
 
 Calculation of the square root of the overlap matrix...
 30 AOs are eliminated for irrep 1.
 Minimum eigenvalue of the overlap matrix: 0.130999E-08
 Warning! Near linear dependence in the AO basis set.
 This may result in convergence problems.
 CPU time [min]:   846.221                   Wall time [min]:    11.523
 
 Calculation of kinetic energy integrals...
 CPU time [min]:   846.242                   Wall time [min]:    11.530
 Calculation of nuclear attraction integrals...
 CPU time [min]:   862.291                   Wall time [min]:    11.850
 Calculation of core potential integrals...
 CPU time [min]:   980.483                   Wall time [min]:   130.177
 
 Calculation of prescreening integrals...
 CPU time [min]:  1566.320                   Wall time [min]:   142.556
 
 Calculation of two-center Coulomb integrals...
   1% done.
  12% done.
  23% done.
  34% done.
  45% done.
  56% done.
  67% done.
  78% done.
  89% done.
 100% done.
 CPU time [min]:  1566.577                   Wall time [min]:   142.571
 
 Cholesky decomposition of the two-center matrix...
 Reciprocal of the condition number:  0.248322E-08
 Warning! Ill-conditioned two-center integral matrix.
 This may result in convergence problems.
 CPU time [min]:  1567.405                   Wall time [min]:   142.660
 

 ************************ 2021-12-10 23:14:15 *************************
 Executing scf...

 @scfsetup: integrals calculated directly
            mrcc/integ direct run
 @scfsetup: calculating on full matrices
            not using symmetry adapted basis
 @scfsetup: diis switched on
 @scfsetup: number of steps to extrapolate from  10
 @scfsetup: tolerance in energy deviation    0.100000E-05
            tolerance in density deviation    0.100000E-05
 @scfsetup: maximum number of iterations:1000
 @scfsetup: restricted closed shell hf calc
 @scfsetup: restarting scf from SCFDENSITIES file
 @scfsetup: occupation set:
            from initial orbitals
 @scfsetup: diis runs from iteration:   1
 @scfsetup: diis runs to iteration:1000
 @scfsetup: diis runs in every iteration
 Allocation of 490.0 Gbytes of memory...
 ======================================================================
 ITERATION STEP   1
 CPU time [min]:     8.531                   Wall time [min]:     0.180
 
 Constructing Fock-matrix...
 
 First step of Coulomb + first step of exchange...
 Exchange contribution is evaluated for MOs 1 to 454.
   1% done.
  12% done.
  23% done.
  34% done.
  45% done.
  56% done.
  67% done.
  78% done.
  89% done.
 100% done.
 CPU time [min]:  4760.803                   Wall time [min]:    63.925
 
 Fitting and assembly step of exchange...
 CPU time [min]:  5874.877                   Wall time [min]:    81.441
 
 Calculation of two-electron integrals (long range)...
   1% done.
  12% done.
  23% done.
  34% done.
  45% done.
  56% done.
  67% done.
  78% done.
  89% done.
 100% done.
 CPU time [min]: 10578.701                   Wall time [min]:   144.063
 
 Fitting and assembly step of exchange...
 CPU time [min]: 10986.280                   Wall time [min]:   150.440
 
 Second step of Coulomb + second step of exchange...
 Exchange contribution is evaluated for MOs 455 to 585.
   1% done.
  12% done.
  23% done.
  34% done.
  45% done.
  56% done.
  67% done.
  78% done.
  89% done.
 100% done.
 CPU time [min]: 12030.313                   Wall time [min]:   164.374
 
 Fitting and assembly step of exchange...
 CPU time [min]: 12257.039                   Wall time [min]:   167.750
 
 Calculation of two-electron integrals (long range)...
   1% done.
  12% done.
  23% done.
  34% done.
  45% done.
  56% done.
  67% done.
  78% done.
  89% done.
 100% done.
 CPU time [min]: 13294.227                   Wall time [min]:   181.592
 
 Fitting and assembly step of exchange...
 CPU time [min]: 13411.842                   Wall time [min]:   183.476
 
 Calculating the exchange-correlation matrix...
      1.0000*HYB_GGA_XC_WB97X [au]:   -976.213886666145
 Exchange-correlation energy  [au]:   -976.213886666145
 CPU time [min]: 14348.705                   Wall time [min]:   196.010
 
 Coulomb energy + HF exchange [au]:  69580.594187226830
 Gradient norm:      2.7515E-02
 RMS of difference density:                            0.02285907190194
 Gap [au]:  0.49654596
 ALPHA OCC: 585
 BETA  OCC: 585
 
 ***KOHN-SHAM ENERGY IN STEP   1 IS         -23138.3448976665677037 [AU]
 ======================================================================
 ITERATION STEP   2
 CPU time [min]: 14368.874                   Wall time [min]:   196.353
 
 Constructing Fock-matrix...
 
 First step of Coulomb + first step of exchange...
 Exchange contribution is evaluated for MOs 1 to 454.
   1% done.
  12% done.
  23% done.
  34% done.
  45% done.
  56% done.
  67% done.
  78% done.
  89% done.
 100% done.
 CPU time [min]: 19053.361                   Wall time [min]:   258.801
 
 Fitting and assembly step of exchange...
 CPU time [min]: 20118.700                   Wall time [min]:   275.183
 
 Calculation of two-electron integrals (long range)...
   1% done.
  12% done.
  23% done.
  34% done.
  45% done.
  56% done.
  67% done.
  78% done.
  89% done.
 100% done.
 CPU time [min]: 24793.482                   Wall time [min]:   337.429
 
 Fitting and assembly step of exchange...
 CPU time [min]: 25202.303                   Wall time [min]:   343.817
 
 Second step of Coulomb + second step of exchange...
 Exchange contribution is evaluated for MOs 455 to 585.
   1% done.
  12% done.
  23% done.
  34% done.
  45% done.
  56% done.
  67% done.
  78% done.
  89% done.
 100% done.
 CPU time [min]: 26245.701                   Wall time [min]:   357.738
 
 Fitting and assembly step of exchange...
 CPU time [min]: 26461.739                   Wall time [min]:   360.993
 
 Calculation of two-electron integrals (long range)...
   1% done.
  12% done.
  23% done.
  34% done.
  45% done.
  56% done.
  67% done.
  78% done.
  89% done.
 100% done.
 CPU time [min]: 27496.821                   Wall time [min]:   374.809
 
 Fitting and assembly step of exchange...
 CPU time [min]: 27615.028                   Wall time [min]:   376.682
 
 Calculating the exchange-correlation matrix...
      1.0000*HYB_GGA_XC_WB97X [au]:   -977.509548456056
 Exchange-correlation energy  [au]:   -977.509548456056
 CPU time [min]: 28556.510                   Wall time [min]:   389.277
 
 Coulomb energy + HF exchange [au]:  69581.317072166945
 Gradient norm:      9.4821E-03
 DIIS is running in this iteration step.
 RMS of [F,P]:                                         0.00018219816515
 RMS of difference density:                            0.05160851750819
 Gap [au]:  0.49810635
 ALPHA OCC: 585
 BETA  OCC: 585
 
 ***KOHN-SHAM ENERGY IN STEP   2 IS         -23139.3917071254982147 [AU]
 ======================================================================
 ITERATION STEP   3
 CPU time [min]: 28571.326                   Wall time [min]:   389.544
 
 Constructing Fock-matrix...
 
 First step of Coulomb + first step of exchange...
 Exchange contribution is evaluated for MOs 1 to 454.
   1% done.
  12% done.
  23% done.
  34% done.
  45% done.
  56% done.
  67% done.
  78% done.
  89% done.
 100% done.
 CPU time [min]: 33242.926                   Wall time [min]:   451.961
 
 Fitting and assembly step of exchange...
 CPU time [min]: 34282.831                   Wall time [min]:   467.859
 
 Calculation of two-electron integrals (long range)...
   1% done.
  12% done.
  23% done.
  34% done.
  45% done.
  56% done.
  67% done.
  78% done.
  89% done.
 100% done.
 CPU time [min]: 38949.000                   Wall time [min]:   529.987
 
 Fitting and assembly step of exchange...
 CPU time [min]: 39350.858                   Wall time [min]:   536.276
 
 Second step of Coulomb + second step of exchange...
 Exchange contribution is evaluated for MOs 455 to 585.
   1% done.
  12% done.
  23% done.
  34% done.
  45% done.
  56% done.
  67% done.
  78% done.
  89% done.
 100% done.
 CPU time [min]: 40397.418                   Wall time [min]:   550.238
 
 Fitting and assembly step of exchange...
 CPU time [min]: 40621.828                   Wall time [min]:   553.715
 
 Calculation of two-electron integrals (long range)...
   1% done.
  12% done.
  23% done.
  34% done.
  45% done.
  56% done.
  67% done.
  78% done.
  89% done.
 100% done.
 CPU time [min]: 41658.798                   Wall time [min]:   567.569
 
 Fitting and assembly step of exchange...
 CPU time [min]: 41778.829                   Wall time [min]:   569.512
 
 Calculating the exchange-correlation matrix...
