 **********************************************************************
                          MRCC program system
 **********************************************************************
 
                              Written by
 Mihaly Kallay, Peter R. Nagy, David Mester, Zoltan Rolik, Gyula Samu,
   Jozsef Csontos, Jozsef Csoka, P. Bernat Szabo, Laszlo Gyevi-Nagy,
    Bence Hegely, Istvan Ladjanszki, Lorant Szegedy, Bence Ladoczki,
       Klara Petrov, Mate Farkas, Pal D. Mezei, and Adam Ganyecz
 
        Department of Physical Chemistry and Materials Science
            Budapest University of Technology and Economics
                  Budapest P.O.Box 91, H-1521 Hungary
 
                              www.mrcc.hu
 
                    Release date: February 22, 2020

 ************************ 2022-02-05 14:25:12 *************************
 Executing minp...

 Reading input from MINP...
 
 Input file:
 
calc=LNO-CCSD(T)
scftype=rhf
verbosity=3
mem=490GB
symm=off
unit=angs
scfiguess=small
scfmaxit=1000
scfalg=locfit1

lcorthr=Normal
ccmaxit=400
usedisk=0
ccsdalg=dfdirect
ccsdthreads=4
ccsdmkl=thr
ptthreads=4

charge=-12
core=27

basis=special
def2-QZVPP
def2-QZVPP
def2-QZVPP
def2-QZVPP
def2-QZVPP
def2-QZVPP
def2-QZVPP
def2-QZVPP
def2-QZVPP
def2-QZVPP
def2-QZVPP
def2-QZVPP
nothing
nothing
nothing
nothing
nothing
nothing
nothing
nothing
nothing
nothing
nothing
nothing
nothing
nothing
nothing
nothing
nothing
nothing
nothing
nothing
nothing
nothing
nothing
nothing
nothing
nothing
nothing
nothing
nothing
nothing
nothing
nothing
nothing
nothing
nothing
nothing
nothing
nothing
nothing
nothing
nothing
nothing
nothing
nothing
nothing
nothing
nothing
nothing
nothing
nothing
nothing
nothing
nothing
nothing
nothing
nothing
nothing
nothing
nothing
nothing
nothing
nothing
nothing
nothing
nothing
nothing
nothing

basis_sm=special
STO-3G
STO-3G
STO-3G
STO-3G
STO-3G
STO-3G
STO-3G
STO-3G
STO-3G
STO-3G
STO-3G
STO-3G
nothing
nothing
nothing
nothing
nothing
nothing
nothing
nothing
nothing
nothing
nothing
nothing
nothing
nothing
nothing
nothing
nothing
nothing
nothing
nothing
nothing
nothing
nothing
nothing
nothing
nothing
nothing
nothing
nothing
nothing
nothing
nothing
nothing
nothing
nothing
nothing
nothing
nothing
nothing
nothing
nothing
nothing
nothing
nothing
nothing
nothing
nothing
nothing
nothing
nothing
nothing
nothing
nothing
nothing
nothing
nothing
nothing
nothing
nothing
nothing
nothing
nothing
nothing
nothing
nothing
nothing
nothing

dfbasis_scf=special
def2-QZVPP-RI-JK
def2-QZVPP-RI-JK
def2-QZVPP-RI-JK
def2-QZVPP-RI-JK
def2-QZVPP-RI-JK
def2-QZVPP-RI-JK
def2-QZVPP-RI-JK
def2-QZVPP-RI-JK
def2-QZVPP-RI-JK
def2-QZVPP-RI-JK
def2-QZVPP-RI-JK
def2-QZVPP-RI-JK
nothing
nothing
nothing
nothing
nothing
nothing
nothing
nothing
nothing
nothing
nothing
nothing
nothing
nothing
nothing
nothing
nothing
nothing
nothing
nothing
nothing
nothing
nothing
nothing
nothing
nothing
nothing
nothing
nothing
nothing
nothing
nothing
nothing
nothing
nothing
nothing
nothing
nothing
nothing
nothing
nothing
nothing
nothing
nothing
nothing
nothing
nothing
nothing
nothing
nothing
nothing
nothing
nothing
nothing
nothing
nothing
nothing
nothing
nothing
nothing
nothing
nothing
nothing
nothing
nothing
nothing
nothing

dfbasis_cor=special
def2-QZVPP-RI
def2-QZVPP-RI
def2-QZVPP-RI
def2-QZVPP-RI
def2-QZVPP-RI
def2-QZVPP-RI
def2-QZVPP-RI
def2-QZVPP-RI
def2-QZVPP-RI
def2-QZVPP-RI
def2-QZVPP-RI
def2-QZVPP-RI
nothing
nothing
nothing
nothing
nothing
nothing
nothing
nothing
nothing
nothing
nothing
nothing
nothing
nothing
nothing
nothing
nothing
nothing
nothing
nothing
nothing
nothing
nothing
nothing
nothing
nothing
nothing
nothing
nothing
nothing
nothing
nothing
nothing
nothing
nothing
nothing
nothing
nothing
nothing
nothing
nothing
nothing
nothing
nothing
nothing
nothing
nothing
nothing
nothing
nothing
nothing
nothing
nothing
nothing
nothing
nothing
nothing
nothing
nothing
nothing
nothing
nothing
nothing
nothing
nothing
nothing
nothing

ecp=special
none
none
none
none
none
none
none
none
none
none
none
none
ECP-22
ECP-22
ECP-22
ECP-22
ECP-22
ECP-22
ECP-22
ECP-22
ECP-22
ECP-22
ECP-22
ECP-22
ECP-22
ECP-22
ECP-22
ECP-22
ECP-22
ECP-22
ECP-22
ECP-22
ECP-22
ECP-22
ECP-22
ECP-22
ECP-22
ECP-22
ECP-22
ECP-22
ECP-22
ECP-22
ECP-22
ECP-22
ECP-22
ECP-22
ECP-22
ECP-22
ECP-22
ECP-22
ECP-22
ECP-22
ECP-22
ECP-22
ECP-22
ECP-22
ECP-22
ECP-22
ECP-22
ECP-22
ECP-22
ECP-22
ECP-22
ECP-22
ECP-22
ECP-22
ECP-22
ECP-22
ECP-22
ECP-22
ECP-22
ECP-22
ECP-22
ECP-22
ECP-22
ECP-22
ECP-22
ECP-22
ECP-22

unit=angs
geom=xyz
79
Ti2O10ECP67
O     0.00000000000    0.00000000000    0.00000000000
Ti    0.00000536997    1.48055149700   -1.06892606631
Ti    0.00000552101   -1.48055312386   -1.06892138720
O     0.00000442396   -0.00000111986   -2.54840301833
O    -2.03525914147    1.48054518365   -1.11149385695
O     2.03526534753    1.48054527935   -1.11149163807
O     2.03526471018   -1.48054700097   -1.11149295951
O    -2.03525907462   -1.48054722666   -1.11149503385
O    -0.00000037752    2.96109155033   -0.00000271770
O    -0.00000037752   -2.96109552160   -0.00000271770
O     0.00000449994    2.96109199200   -2.54840438198
O     0.00000449994   -2.96109507993   -2.54840438198
Ti    3.25402319191   -0.00000112036   -1.42716202606
Ti   -3.25401610555   -0.00000112036   -1.42716202606
Ti   -0.00005220374   -0.00000071014   -4.41288396045
Ti    0.00000552101    4.44163394806   -1.06892138720
Ti    0.00000536997   -4.44163557493   -1.06892606631
Ti   -3.25401668289    2.96109302555   -1.42716235830
Ti    3.25402261457    2.96109302555   -1.42716235830
Ti    3.25402261457   -2.96109404638   -1.42716235830
Ti   -3.25401668289   -2.96109404638   -1.42716235830
Ti   -0.00005206359    2.96109301637   -4.41288206312
Ti   -0.00005206359   -2.96109405556   -4.41288206312
Ti    3.25395215162    1.48054533538   -4.59991327640
Ti    3.25395195581   -1.48054722422   -4.59991284715
Ti   -3.25408714585    1.48054533538   -4.59991327640
Ti   -3.25408734165   -1.48054722422   -4.59991284715
Ti   -6.50803392749    1.48055149700   -1.06892606631
Ti    6.50804466744    1.48055149700   -1.06892606631
Ti    6.50804481848   -1.48055312386   -1.06892138720
Ti   -6.50803377645   -1.48055312386   -1.06892138720
Ti   -3.25401610555    5.92218595157   -1.42716202606
Ti    3.25402319191    5.92218595157   -1.42716202606
Ti    3.25402319191   -5.92218819228   -1.42716202606
Ti   -3.25401610555   -5.92218819228   -1.42716202606
Ti    3.25395195581    4.44163984770   -4.59991284715
Ti    3.25395215162   -4.44164173655   -4.59991327640
Ti   -3.25408734165    4.44163984770   -4.59991284715
Ti   -3.25408714585   -4.44164173655   -4.59991327640
Ti   -0.00005220374    5.92218636178   -4.41288396045
Ti   -0.00005220374   -5.92218778207   -4.41288396045
Ti    0.00000536997    7.40273856892   -1.06892606631
Ti    0.00000552101   -7.40274019579   -1.06892138720
Ti    6.50798709372   -0.00000071014   -4.41288396045
Ti   -6.50809150121   -0.00000071014   -4.41288396045
Ti   -0.00000306899    1.48054576566   -7.78540932970
Ti   -0.00000306899   -1.48054777030   -7.78540932970
Ti   -6.50803377645    4.44163394806   -1.06892138720
Ti    6.50804481848    4.44163394806   -1.06892138720
Ti    6.50804466744   -4.44163557493   -1.06892606631
Ti   -6.50803392749   -4.44163557493   -1.06892606631
Ti    6.50798723387    2.96109301637   -4.41288206312
Ti    6.50798723387   -2.96109405556   -4.41288206312
Ti   -6.50809136106    2.96109301637   -4.41288206312
Ti   -6.50809136106   -2.96109405556   -4.41288206312
Ti    3.25401657974   -0.00000100232   -7.78540932970
Ti   -3.25402271772   -0.00000100232   -7.78540932970
Ti   -3.25402271772    2.96109253364   -7.78540932970
Ti    3.25401657974    2.96109253364   -7.78540932970
Ti    3.25401657974   -2.96109453828   -7.78540932970
Ti   -3.25402271772   -2.96109453828   -7.78540932970
Ti   -0.00000306899    4.44163930162   -7.78540932970
Ti   -0.00000306899   -4.44164130627   -7.78540932970
Ti   -3.25408714585    7.40273240730   -4.59991327640
Ti    3.25395215162    7.40273240730   -4.59991327640
Ti    3.25395195581   -7.40273429615   -4.59991284715
Ti   -3.25408734165   -7.40273429615   -4.59991284715
Ti   -3.25401668289    8.88328009748   -1.42716235830
Ti    3.25402261457    8.88328009748   -1.42716235830
Ti    3.25402261457   -8.88328111830   -1.42716235830
Ti   -3.25401668289   -8.88328111830   -1.42716235830
Ti   -0.00005206359    8.88328008829   -4.41288206312
Ti   -0.00005206359   -8.88328112748   -4.41288206312
Ti   -3.25402271772    5.92218606960   -7.78540932970
Ti    3.25401657974    5.92218606960   -7.78540932970
Ti    3.25401657974   -5.92218807425   -7.78540932970
Ti   -3.25402271772   -5.92218807425   -7.78540932970
Ti   -0.00000306899    7.40273283758   -7.78540932970
Ti   -0.00000306899   -7.40273484223   -7.78540932970

ghost=serialno
1

qmmm=Amber
pointcharges
12981
      3.25402319191   -0.00000112036   -1.42716202606    4.00000000000
     -3.25401610555   -0.00000112036   -1.42716202606    4.00000000000
     -0.00005220374   -0.00000071014   -4.41288396045    4.00000000000
      0.00000552101    4.44163394806   -1.06892138720    4.00000000000
      0.00000536997   -4.44163557493   -1.06892606631    4.00000000000
      3.25402603430   -0.00000063665   -3.23990501486   -2.00000000000
     -3.25401326317   -0.00000063665   -3.23990501486   -2.00000000000
     -3.25401668289    2.96109302555   -1.42716235830    4.00000000000
      3.25402261457    2.96109302555   -1.42716235830    4.00000000000
      3.25402261457   -2.96109404638   -1.42716235830    4.00000000000
     -3.25401668289   -2.96109404638   -1.42716235830    4.00000000000
     -4.47277394994    1.48054527935   -1.11149163807   -2.00000000000
      4.47278015600    1.48054518365   -1.11149385695   -2.00000000000
      4.47278022285   -1.48054722666   -1.11149503385   -2.00000000000
     -4.47277458729   -1.48054700097   -1.11149295951   -2.00000000000
     -1.30106804451    1.48054600613   -4.51644966155   -2.00000000000
      1.30109103436    1.48054591013   -4.51645509582   -2.00000000000
      1.30109095673   -1.48054821213   -4.51645492343   -2.00000000000
     -1.30106798933   -1.48054805070   -4.51644946585   -2.00000000000
     -2.03525907462    4.44163984526   -1.11149503385   -2.00000000000
      2.03526471018    4.44164007096   -1.11149295951   -2.00000000000
      2.03526534753   -4.44164179257   -1.11149163807   -2.00000000000
     -2.03525914147   -4.44164188827   -1.11149385695   -2.00000000000
     -0.00005206359    2.96109301637   -4.41288206312    4.00000000000
     -0.00005206359   -2.96109405556   -4.41288206312    4.00000000000
     -3.25401306857    2.96109209923   -3.23990596489   -2.00000000000
      3.25402622890    2.96109209923   -3.23990596489   -2.00000000000
      3.25402622890   -2.96109497270   -3.23990596489   -2.00000000000
     -3.25401306857   -2.96109497270   -3.23990596489   -2.00000000000
      3.25395215162    1.48054533538   -4.59991327640    4.00000000000
      3.25395195581   -1.48054722422   -4.59991284715    4.00000000000
     -3.25408714585    1.48054533538   -4.59991327640    4.00000000000
     -3.25408734165   -1.48054722422   -4.59991284715    4.00000000000
      0.00000000000    5.92218707193    0.00000000000   -2.00000000000
      0.00000000000   -5.92218707193    0.00000000000   -2.00000000000
     -4.47277458729    4.44164007096   -1.11149295951   -2.00000000000
      4.47278022285    4.44163984526   -1.11149503385   -2.00000000000
      4.47278015600   -4.44164188827   -1.11149385695   -2.00000000000
     -4.47277394994   -4.44164179257   -1.11149163807   -2.00000000000
      0.00000442396    5.92218595207   -2.54840301833   -2.00000000000
      0.00000442396   -5.92218819178   -2.54840301833   -2.00000000000
     -1.30106798933    4.44163902122   -4.51644946585   -2.00000000000
      1.30109095673    4.44163885980   -4.51645492343   -2.00000000000
      1.30109103436   -4.44164116180   -4.51645509582   -2.00000000000
     -1.30106804451   -4.44164106579   -4.51644966155   -2.00000000000
     -6.50803929747    0.00000000000    0.00000000000   -2.00000000000
      6.50803929747    0.00000000000    0.00000000000   -2.00000000000
     -0.00000306899   -0.00000100232   -6.51331789952   -2.00000000000
      3.25402501297   -0.00000107099   -5.78839374873   -2.00000000000
     -3.25401428450   -0.00000107099   -5.78839374873   -2.00000000000
     -6.50803392749    1.48055149700   -1.06892606631    4.00000000000
      6.50804466744    1.48055149700   -1.06892606631    4.00000000000
      6.50804481848   -1.48055312386   -1.06892138720    4.00000000000
     -6.50803377645   -1.48055312386   -1.06892138720    4.00000000000
     -3.25401610555    5.92218595157   -1.42716202606    4.00000000000
      3.25402319191    5.92218595157   -1.42716202606    4.00000000000
      3.25402319191   -5.92218819228   -1.42716202606    4.00000000000
     -3.25401610555   -5.92218819228   -1.42716202606    4.00000000000
      6.50804372142   -0.00000111986   -2.54840301833   -2.00000000000
     -6.50803487351   -0.00000111986   -2.54840301833   -2.00000000000
     -5.20694826311    1.48054591013   -4.51645509582   -2.00000000000
      5.20697125296    1.48054600613   -4.51644966155   -2.00000000000
      5.20697130813   -1.48054805070   -4.51644946585   -2.00000000000
     -5.20694834074   -1.48054821213   -4.51645492343   -2.00000000000
     -6.50803967498    2.96109155033   -0.00000271770   -2.00000000000
      6.50803891995    2.96109155033   -0.00000271770   -2.00000000000
      6.50803891995   -2.96109552160   -0.00000271770   -2.00000000000
     -6.50803967498   -2.96109552160   -0.00000271770   -2.00000000000
     -0.00000306899    2.96109253364   -6.51331789952   -2.00000000000
     -0.00000306899   -2.96109453828   -6.51331789952   -2.00000000000
      3.25395195581    4.44163984770   -4.59991284715    4.00000000000
      3.25395215162   -4.44164173655   -4.59991327640    4.00000000000
     -3.25408734165    4.44163984770   -4.59991284715    4.00000000000
     -3.25408714585   -4.44164173655   -4.59991327640    4.00000000000
     -3.25401413420    2.96109275570   -5.78839415273   -2.00000000000
      3.25402516327    2.96109275570   -5.78839415273   -2.00000000000
      3.25402516327   -2.96109431623   -5.78839415273   -2.00000000000
     -3.25401413420   -2.96109431623   -5.78839415273   -2.00000000000
     -0.00005220374    5.92218636178   -4.41288396045    4.00000000000
     -0.00005220374   -5.92218778207   -4.41288396045    4.00000000000
      0.00000536997    7.40273856892   -1.06892606631    4.00000000000
      0.00000552101   -7.40274019579   -1.06892138720    4.00000000000
     -3.25401326317    5.92218643528   -3.23990501486   -2.00000000000
      3.25402603430    5.92218643528   -3.23990501486   -2.00000000000
      3.25402603430   -5.92218770857   -3.23990501486   -2.00000000000
     -3.25401326317   -5.92218770857   -3.23990501486   -2.00000000000
     -6.50803479753    2.96109199200   -2.54840438198   -2.00000000000
      6.50804379741    2.96109199200   -2.54840438198   -2.00000000000
      6.50804379741   -2.96109507993   -2.54840438198   -2.00000000000
     -6.50803479753   -2.96109507993   -2.54840438198   -2.00000000000
     -2.03525914147    7.40273225558   -1.11149385695   -2.00000000000
      2.03526534753    7.40273235128   -1.11149163807   -2.00000000000
      2.03526471018   -7.40273407290   -1.11149295951   -2.00000000000
     -2.03525907462   -7.40273429859   -1.11149503385   -2.00000000000
      6.50798709372   -0.00000071014   -4.41288396045    4.00000000000
     -6.50809150121   -0.00000071014   -4.41288396045    4.00000000000
     -0.00000306899    1.48054576566   -7.78540932970    4.00000000000
     -0.00000306899   -1.48054777030   -7.78540932970    4.00000000000
     -6.50803377645    4.44163394806   -1.06892138720    4.00000000000
      6.50804481848    4.44163394806   -1.06892138720    4.00000000000
      6.50804466744   -4.44163557493   -1.06892606631    4.00000000000
     -6.50803392749   -4.44163557493   -1.06892606631    4.00000000000
     -1.98193128755    1.48054576566   -7.78540932970   -2.00000000000
      1.98192514957    1.48054576566   -7.78540932970   -2.00000000000
      1.98192514957   -1.48054777030   -7.78540932970   -2.00000000000
     -1.98193128755   -1.48054777030   -7.78540932970   -2.00000000000
     -5.20694834074    4.44163885980   -4.51645492343   -2.00000000000
      5.20697130813    4.44163902122   -4.51644946585   -2.00000000000
      5.20697125296   -4.44164106579   -4.51644966155   -2.00000000000
     -5.20694826311   -4.44164116180   -4.51645509582   -2.00000000000
      6.50798723387    2.96109301637   -4.41288206312    4.00000000000
      6.50798723387   -2.96109405556   -4.41288206312    4.00000000000
     -6.50809136106    2.96109301637   -4.41288206312    4.00000000000
     -6.50809136106   -2.96109405556   -4.41288206312    4.00000000000
      3.25401657974   -0.00000100232   -7.78540932970    4.00000000000
     -3.25402271772   -0.00000100232   -7.78540932970    4.00000000000
     -4.47277394994    7.40273235128   -1.11149163807   -2.00000000000
      4.47278015600    7.40273225558   -1.11149385695   -2.00000000000
      4.47278022285   -7.40273429859   -1.11149503385   -2.00000000000
     -4.47277458729   -7.40273407290   -1.11149295951   -2.00000000000
     -8.54329843894    1.48054518365   -1.11149385695   -2.00000000000
      8.54330464500    1.48054527935   -1.11149163807   -2.00000000000
      8.54330400764   -1.48054700097   -1.11149295951   -2.00000000000
     -8.54329837208   -1.48054722666   -1.11149503385   -2.00000000000
     -1.30106804451    7.40273307806   -4.51644966155   -2.00000000000
      1.30109103436    7.40273298205   -4.51645509582   -2.00000000000
      1.30109095673   -7.40273528405   -4.51645492343   -2.00000000000
     -1.30106798933   -7.40273512263   -4.51644946585   -2.00000000000
     -6.50803929747    5.92218707193    0.00000000000   -2.00000000000
      6.50803929747    5.92218707193    0.00000000000   -2.00000000000
      6.50803929747   -5.92218707193    0.00000000000   -2.00000000000
     -6.50803929747   -5.92218707193    0.00000000000   -2.00000000000
     -0.00000306899    5.92218606960   -6.51331789952   -2.00000000000
     -0.00000306899   -5.92218807425   -6.51331789952   -2.00000000000
     -0.00000037752    8.88327862225   -0.00000271770   -2.00000000000
     -0.00000037752   -8.88328259352   -0.00000271770   -2.00000000000
     -3.25401428450    5.92218600093   -5.78839374873   -2.00000000000
      3.25402501297    5.92218600093   -5.78839374873   -2.00000000000
      3.25402501297   -5.92218814292   -5.78839374873   -2.00000000000
     -3.25401428450   -5.92218814292   -5.78839374873   -2.00000000000
     -3.25402271772    2.96109253364   -7.78540932970    4.00000000000
      3.25401657974    2.96109253364   -7.78540932970    4.00000000000
      3.25401657974   -2.96109453828   -7.78540932970    4.00000000000
     -3.25402271772   -2.96109453828   -7.78540932970    4.00000000000
     -0.00000306899    4.44163930162   -7.78540932970    4.00000000000
     -0.00000306899   -4.44164130627   -7.78540932970    4.00000000000
     -0.00000306899   -0.00000100232   -9.05750075987   -2.00000000000
     -7.80910734197    1.48054600613   -4.51644966155   -2.00000000000
      7.80913033182    1.48054591013   -4.51645509582   -2.00000000000
      7.80913025419   -1.48054821213   -4.51645492343   -2.00000000000
     -7.80910728680   -1.48054805070   -4.51644946585   -2.00000000000
     -6.50803487351    5.92218595207   -2.54840301833   -2.00000000000
      6.50804372142    5.92218595207   -2.54840301833   -2.00000000000
      6.50804372142   -5.92218819178   -2.54840301833   -2.00000000000
     -6.50803487351   -5.92218819178   -2.54840301833   -2.00000000000
     -1.98193128755    4.44163930162   -7.78540932970   -2.00000000000
      1.98192514957    4.44163930162   -7.78540932970   -2.00000000000
      1.98192514957   -4.44164130627   -7.78540932970   -2.00000000000
     -1.98193128755   -4.44164130627   -7.78540932970   -2.00000000000
      0.00000449994    8.88327906392   -2.54840438198   -2.00000000000
      0.00000449994   -8.88328215185   -2.54840438198   -2.00000000000
     -3.25408714585    7.40273240730   -4.59991327640    4.00000000000
      3.25395215162    7.40273240730   -4.59991327640    4.00000000000
      3.25395195581   -7.40273429615   -4.59991284715    4.00000000000
     -3.25408734165   -7.40273429615   -4.59991284715    4.00000000000
     -0.00000306899    2.96109253364   -9.05750075987   -2.00000000000
     -0.00000306899   -2.96109453828   -9.05750075987   -2.00000000000
     -3.25401668289    8.88328009748   -1.42716235830    4.00000000000
      3.25402261457    8.88328009748   -1.42716235830    4.00000000000
      3.25402261457   -8.88328111830   -1.42716235830    4.00000000000
     -3.25401668289   -8.88328111830   -1.42716235830    4.00000000000
     -0.00005206359    8.88328008829   -4.41288206312    4.00000000000
     -0.00005206359   -8.88328112748   -4.41288206312    4.00000000000
     -3.25401306857    8.88327917115   -3.23990596489   -2.00000000000
      3.25402622890    8.88327917115   -3.23990596489   -2.00000000000
      3.25402622890   -8.88328204462   -3.23990596489   -2.00000000000
     -3.25401306857   -8.88328204462   -3.23990596489   -2.00000000000
     -3.25402271772    5.92218606960   -7.78540932970    4.00000000000
      3.25401657974    5.92218606960   -7.78540932970    4.00000000000
      3.25401657974   -5.92218807425   -7.78540932970    4.00000000000
     -3.25402271772   -5.92218807425   -7.78540932970    4.00000000000
     -0.00000306899    7.40273283758   -7.78540932970    4.00000000000
     -0.00000306899   -7.40273484223   -7.78540932970    4.00000000000
     -4.52611414790    1.48054576566   -7.78540932970   -2.00000000000
      4.52610800992    1.48054576566   -7.78540932970   -2.00000000000
      4.52610800992   -1.48054777030   -7.78540932970   -2.00000000000
     -4.52611414790   -1.48054777030   -7.78540932970   -2.00000000000
      6.50803622848   -0.00000100232   -6.51331789952   -2.00000000000
     -6.50804236645   -0.00000100232   -6.51331789952   -2.00000000000
     -6.50804236645    2.96109253364   -6.51331789952   -2.00000000000
      6.50803622848    2.96109253364   -6.51331789952   -2.00000000000
      6.50803622848   -2.96109453828   -6.51331789952   -2.00000000000
     -6.50804236645   -2.96109453828   -6.51331789952   -2.00000000000
     -8.54329837208    4.44163984526   -1.11149503385   -2.00000000000
      8.54330400764    4.44164007096   -1.11149295951   -2.00000000000
      8.54330464500   -4.44164179257   -1.11149163807   -2.00000000000
     -8.54329843894   -4.44164188827   -1.11149385695   -2.00000000000
      6.50798709372    5.92218636178   -4.41288396045    4.00000000000
      6.50798709372   -5.92218778207   -4.41288396045    4.00000000000
     -6.50809150121    5.92218636178   -4.41288396045    4.00000000000
     -6.50809150121   -5.92218778207   -4.41288396045    4.00000000000
      9.76206248938   -0.00000112036   -1.42716202606    4.00000000000
     -9.76205540302   -0.00000112036   -1.42716202606    4.00000000000
     -6.50803392749    7.40273856892   -1.06892606631    4.00000000000
      6.50804466744    7.40273856892   -1.06892606631    4.00000000000
      6.50804481848   -7.40274019579   -1.06892138720    4.00000000000
     -6.50803377645   -7.40274019579   -1.06892138720    4.00000000000
     -4.52611414790    4.44163930162   -7.78540932970   -2.00000000000
      4.52610800992    4.44163930162   -7.78540932970   -2.00000000000
      4.52610800992   -4.44164130627   -7.78540932970   -2.00000000000
     -4.52611414790   -4.44164130627   -7.78540932970   -2.00000000000
     -7.80910728680    4.44163902122   -4.51644946585   -2.00000000000
      7.80913025419    4.44163885980   -4.51645492343   -2.00000000000
      7.80913033182   -4.44164116180   -4.51645509582   -2.00000000000
     -7.80910734197   -4.44164106579   -4.51644966155   -2.00000000000
     -5.20694826311    7.40273298205   -4.51645509582   -2.00000000000
      5.20697125296    7.40273307806   -4.51644966155   -2.00000000000
      5.20697130813   -7.40273512263   -4.51644946585   -2.00000000000
     -5.20694834074   -7.40273528405   -4.51645492343   -2.00000000000
     -6.50804236645    1.48054576566   -7.78540932970    4.00000000000
      6.50803622848    1.48054576566   -7.78540932970    4.00000000000
      6.50803622848   -1.48054777030   -7.78540932970    4.00000000000
     -6.50804236645   -1.48054777030   -7.78540932970    4.00000000000
      9.76206533176   -0.00000063665   -3.23990501486   -2.00000000000
     -9.76205256063   -0.00000063665   -3.23990501486   -2.00000000000
      3.25401657974   -0.00000100232   -9.76733754826   -2.00000000000
     -3.25402271772   -0.00000100232   -9.76733754826   -2.00000000000
     -9.76205598036    2.96109302555   -1.42716235830    4.00000000000
      9.76206191204    2.96109302555   -1.42716235830    4.00000000000
      9.76206191204   -2.96109404638   -1.42716235830    4.00000000000
     -9.76205598036   -2.96109404638   -1.42716235830    4.00000000000
      0.00000552101   10.36382101999   -1.06892138720    4.00000000000
      0.00000536997  -10.36382264685   -1.06892606631    4.00000000000
     -2.03525907462   10.36382691719   -1.11149503385   -2.00000000000
      2.03526471018   10.36382714288   -1.11149295951   -2.00000000000
      2.03526534753  -10.36382886450   -1.11149163807   -2.00000000000
     -2.03525914147  -10.36382896020   -1.11149385695   -2.00000000000
     -9.76205236604    2.96109209923   -3.23990596489   -2.00000000000
      9.76206552636    2.96109209923   -3.23990596489   -2.00000000000
      9.76206552636   -2.96109497270   -3.23990596489   -2.00000000000
     -9.76205236604   -2.96109497270   -3.23990596489   -2.00000000000
     -3.25402271772    2.96109253364   -9.76733754826   -2.00000000000
      3.25401657974    2.96109253364   -9.76733754826   -2.00000000000
      3.25401657974   -2.96109453828   -9.76733754826   -2.00000000000
     -3.25402271772   -2.96109453828   -9.76733754826   -2.00000000000
     -0.00000306899    5.92218606960   -9.05750075987   -2.00000000000
     -0.00000306899   -5.92218807425   -9.05750075987   -2.00000000000
      9.76199144908    1.48054533538   -4.59991327640    4.00000000000
      9.76199125328   -1.48054722422   -4.59991284715    4.00000000000
     -9.76212644332    1.48054533538   -4.59991327640    4.00000000000
     -9.76212663912   -1.48054722422   -4.59991284715    4.00000000000
     -1.98193128755    7.40273283758   -7.78540932970   -2.00000000000
      1.98192514957    7.40273283758   -7.78540932970   -2.00000000000
      1.98192514957   -7.40273484223   -7.78540932970   -2.00000000000
     -1.98193128755   -7.40273484223   -7.78540932970   -2.00000000000
     -6.50804236645    5.92218606960   -6.51331789952   -2.00000000000
      6.50803622848    5.92218606960   -6.51331789952   -2.00000000000
      6.50803622848   -5.92218807425   -6.51331789952   -2.00000000000
     -6.50804236645   -5.92218807425   -6.51331789952   -2.00000000000
     -6.50803967498    8.88327862225   -0.00000271770   -2.00000000000
      6.50803891995    8.88327862225   -0.00000271770   -2.00000000000
      6.50803891995   -8.88328259352   -0.00000271770   -2.00000000000
     -6.50803967498   -8.88328259352   -0.00000271770   -2.00000000000
     -0.00000306899    8.88327960557   -6.51331789952   -2.00000000000
     -0.00000306899   -8.88328161021   -6.51331789952   -2.00000000000
     -0.00000306899   -0.00000100232  -11.03942897843    4.00000000000
     -6.50804236645    4.44163930162   -7.78540932970    4.00000000000
      6.50803622848    4.44163930162   -7.78540932970    4.00000000000
      6.50803622848   -4.44164130627   -7.78540932970    4.00000000000
     -6.50804236645   -4.44164130627   -7.78540932970    4.00000000000
     -3.25401413420    8.88327982762   -5.78839415273   -2.00000000000
      3.25402516327    8.88327982762   -5.78839415273   -2.00000000000
      3.25402516327   -8.88328138815   -5.78839415273   -2.00000000000
     -3.25401413420   -8.88328138815   -5.78839415273   -2.00000000000
    -10.98081324740    1.48054527935   -1.11149163807   -2.00000000000
     10.98081945346    1.48054518365   -1.11149385695   -2.00000000000
     10.98081952031   -1.48054722666   -1.11149503385   -2.00000000000
    -10.98081388475   -1.48054700097   -1.11149295951   -2.00000000000
      6.50803622848   -0.00000100232   -9.05750075987   -2.00000000000
     -6.50804236645   -0.00000100232   -9.05750075987   -2.00000000000
     -1.27209449916    1.48054576566  -11.03942897843   -2.00000000000
      1.27208836119    1.48054576566  -11.03942897843   -2.00000000000
      1.27208836119   -1.48054777030  -11.03942897843   -2.00000000000
     -1.27209449916   -1.48054777030  -11.03942897843   -2.00000000000
     -6.50803479753    8.88327906392   -2.54840438198   -2.00000000000
      6.50804379741    8.88327906392   -2.54840438198   -2.00000000000
      6.50804379741   -8.88328215185   -2.54840438198   -2.00000000000
     -6.50803479753   -8.88328215185   -2.54840438198   -2.00000000000
     -4.47277458729   10.36382714288   -1.11149295951   -2.00000000000
      4.47278022285   10.36382691719   -1.11149503385   -2.00000000000
      4.47278015600  -10.36382896020   -1.11149385695   -2.00000000000
     -4.47277394994  -10.36382886450   -1.11149163807   -2.00000000000
      9.76206431043   -0.00000107099   -5.78839374873   -2.00000000000
     -9.76205358197   -0.00000107099   -5.78839374873   -2.00000000000
     -8.54329843894    7.40273225558   -1.11149385695   -2.00000000000
      8.54330464500    7.40273235128   -1.11149163807   -2.00000000000
      8.54330400764   -7.40273407290   -1.11149295951   -2.00000000000
     -8.54329837208   -7.40273429859   -1.11149503385   -2.00000000000
     -1.30106798933   10.36382609315   -4.51644946585   -2.00000000000
      1.30109095673   10.36382593172   -4.51645492343   -2.00000000000
      1.30109103436  -10.36382823372   -4.51645509582   -2.00000000000
     -1.30106804451  -10.36382813772   -4.51644966155   -2.00000000000
     -0.00000306899    2.96109253364  -11.03942897843    4.00000000000
     -0.00000306899   -2.96109453828  -11.03942897843    4.00000000000
     -9.76205540302    5.92218595157   -1.42716202606    4.00000000000
      9.76206248938    5.92218595157   -1.42716202606    4.00000000000
      9.76206248938   -5.92218819228   -1.42716202606    4.00000000000
     -9.76205540302   -5.92218819228   -1.42716202606    4.00000000000
     -6.50804236645    2.96109253364   -9.05750075987   -2.00000000000
      6.50803622848    2.96109253364   -9.05750075987   -2.00000000000
      6.50803622848   -2.96109453828   -9.05750075987   -2.00000000000
     -6.50804236645   -2.96109453828   -9.05750075987   -2.00000000000
     -3.25402271772    1.48054576566  -11.03942897843    4.00000000000
      3.25401657974    1.48054576566  -11.03942897843    4.00000000000
      3.25401657974   -1.48054777030  -11.03942897843    4.00000000000
     -3.25402271772   -1.48054777030  -11.03942897843    4.00000000000
     -8.48997058501    1.48054576566   -7.78540932970   -2.00000000000
      8.48996444703    1.48054576566   -7.78540932970   -2.00000000000
      8.48996444703   -1.48054777030   -7.78540932970   -2.00000000000
     -8.48997058501   -1.48054777030   -7.78540932970   -2.00000000000
     -4.52611414790    7.40273283758   -7.78540932970   -2.00000000000
      4.52610800992    7.40273283758   -7.78540932970   -2.00000000000
      4.52610800992   -7.40273484223   -7.78540932970   -2.00000000000
     -4.52611414790   -7.40273484223   -7.78540932970   -2.00000000000
     -7.80910734197    7.40273307806   -4.51644966155   -2.00000000000
      7.80913033182    7.40273298205   -4.51645509582   -2.00000000000
      7.80913025419   -7.40273528405   -4.51645492343   -2.00000000000
     -7.80910728680   -7.40273512263   -4.51644946585   -2.00000000000
      9.76199125328    4.44163984770   -4.59991284715    4.00000000000
      9.76199144908   -4.44164173655   -4.59991327640    4.00000000000
     -9.76212663912    4.44163984770   -4.59991284715    4.00000000000
     -9.76212644332   -4.44164173655   -4.59991327640    4.00000000000
     -9.76205343167    2.96109275570   -5.78839415273   -2.00000000000
      9.76206446073    2.96109275570   -5.78839415273   -2.00000000000
      9.76206446073   -2.96109431623   -5.78839415273   -2.00000000000
     -9.76205343167   -2.96109431623   -5.78839415273   -2.00000000000
     -3.25408734165   10.36382691963   -4.59991284715    4.00000000000
      3.25395195581   10.36382691963   -4.59991284715    4.00000000000
      3.25395215162  -10.36382880847   -4.59991327640    4.00000000000
     -3.25408714585  -10.36382880847   -4.59991327640    4.00000000000
      0.00000000000   11.84437414385    0.00000000000   -2.00000000000
      0.00000000000  -11.84437414385    0.00000000000   -2.00000000000
      6.50798723387    8.88328008829   -4.41288206312    4.00000000000
      6.50798723387   -8.88328112748   -4.41288206312    4.00000000000
     -6.50809136106    8.88328008829   -4.41288206312    4.00000000000
     -6.50809136106   -8.88328112748   -4.41288206312    4.00000000000
     -9.76205256063    5.92218643528   -3.23990501486   -2.00000000000
      9.76206533176    5.92218643528   -3.23990501486   -2.00000000000
      9.76206533176   -5.92218770857   -3.23990501486   -2.00000000000
     -9.76205256063   -5.92218770857   -3.23990501486   -2.00000000000
     -3.25402271772    5.92218606960   -9.76733754826   -2.00000000000
      3.25401657974    5.92218606960   -9.76733754826   -2.00000000000
      3.25401657974   -5.92218807425   -9.76733754826   -2.00000000000
     -3.25402271772   -5.92218807425   -9.76733754826   -2.00000000000
    -10.98081388475    4.44164007096   -1.11149295951   -2.00000000000
     10.98081952031    4.44163984526   -1.11149503385   -2.00000000000
     10.98081945346   -4.44164188827   -1.11149385695   -2.00000000000
    -10.98081324740   -4.44164179257   -1.11149163807   -2.00000000000
     -1.27209449916    4.44163930162  -11.03942897843   -2.00000000000
      1.27208836119    4.44163930162  -11.03942897843   -2.00000000000
      1.27208836119   -4.44164130627  -11.03942897843   -2.00000000000
     -1.27209449916   -4.44164130627  -11.03942897843   -2.00000000000
      0.00000442396   11.84437302399   -2.54840301833   -2.00000000000
      0.00000442396  -11.84437526371   -2.54840301833   -2.00000000000
     -3.25402271772    8.88327960557   -7.78540932970    4.00000000000
      3.25401657974    8.88327960557   -7.78540932970    4.00000000000
      3.25401657974   -8.88328161021   -7.78540932970    4.00000000000
     -3.25402271772   -8.88328161021   -7.78540932970    4.00000000000
     -6.50803377645   10.36382101999   -1.06892138720    4.00000000000
      6.50804481848   10.36382101999   -1.06892138720    4.00000000000
      6.50804466744  -10.36382264685   -1.06892606631    4.00000000000
     -6.50803392749  -10.36382264685   -1.06892606631    4.00000000000
     -5.23595093628    1.48054576566  -11.03942897843   -2.00000000000
      5.23594479830    1.48054576566  -11.03942897843   -2.00000000000
      5.23594479830   -1.48054777030  -11.03942897843   -2.00000000000
     -5.23595093628   -1.48054777030  -11.03942897843   -2.00000000000
     -3.25402271772    4.44163930162  -11.03942897843    4.00000000000
      3.25401657974    4.44163930162  -11.03942897843    4.00000000000
      3.25401657974   -4.44164130627  -11.03942897843    4.00000000000
     -3.25402271772   -4.44164130627  -11.03942897843    4.00000000000
     -8.48997058501    4.44163930162   -7.78540932970   -2.00000000000
      8.48996444703    4.44163930162   -7.78540932970   -2.00000000000
      8.48996444703   -4.44164130627   -7.78540932970   -2.00000000000
     -8.48997058501   -4.44164130627   -7.78540932970   -2.00000000000
     -3.25401610555   11.84437302349   -1.42716202606    4.00000000000
      3.25402319191   11.84437302349   -1.42716202606    4.00000000000
      3.25402319191  -11.84437526421   -1.42716202606    4.00000000000
     -3.25401610555  -11.84437526421   -1.42716202606    4.00000000000
     -5.20694834074   10.36382593172   -4.51645492343   -2.00000000000
      5.20697130813   10.36382609315   -4.51644946585   -2.00000000000
      5.20697125296  -10.36382813772   -4.51644966155   -2.00000000000
     -5.20694826311  -10.36382823372   -4.51645509582   -2.00000000000
      9.76205587721   -0.00000100232   -7.78540932970    4.00000000000
     -9.76206201519   -0.00000100232   -7.78540932970    4.00000000000
     -0.00000306899    5.92218606960  -11.03942897843    4.00000000000
     -0.00000306899   -5.92218807425  -11.03942897843    4.00000000000
     -6.50804236645    7.40273283758   -7.78540932970    4.00000000000
      6.50803622848    7.40273283758   -7.78540932970    4.00000000000
      6.50803622848   -7.40273484223   -7.78540932970    4.00000000000
     -6.50804236645   -7.40273484223   -7.78540932970    4.00000000000
     -6.50804236645    5.92218606960   -9.05750075987   -2.00000000000
      6.50803622848    5.92218606960   -9.05750075987   -2.00000000000
      6.50803622848   -5.92218807425   -9.05750075987   -2.00000000000
     -6.50804236645   -5.92218807425   -9.05750075987   -2.00000000000
     -0.00005220374   11.84437343371   -4.41288396045    4.00000000000
     -0.00005220374  -11.84437485399   -4.41288396045    4.00000000000
    -11.71498756057    1.48054591013   -4.51645509582   -2.00000000000
     11.71501055042    1.48054600613   -4.51644966155   -2.00000000000
     11.71501060560   -1.48054805070   -4.51644946585   -2.00000000000
    -11.71498763820   -1.48054821213   -4.51645492343   -2.00000000000
     -0.00000306899    8.88327960557   -9.05750075987   -2.00000000000
     -0.00000306899   -8.88328161021   -9.05750075987   -2.00000000000
     -3.25401326317   11.84437350720   -3.23990501486   -2.00000000000
      3.25402603430   11.84437350720   -3.23990501486   -2.00000000000
      3.25402603430  -11.84437478050   -3.23990501486   -2.00000000000
     -3.25401326317  -11.84437478050   -3.23990501486   -2.00000000000
      3.25401657974   -0.00000100232  -12.31152040860   -2.00000000000
     -3.25402271772   -0.00000100232  -12.31152040860   -2.00000000000
     -6.50804236645    8.88327960557   -6.51331789952   -2.00000000000
      6.50803622848    8.88327960557   -6.51331789952   -2.00000000000
      6.50803622848   -8.88328161021   -6.51331789952   -2.00000000000
     -6.50804236645   -8.88328161021   -6.51331789952   -2.00000000000
     -9.76205358197    5.92218600093   -5.78839374873   -2.00000000000
      9.76206431043    5.92218600093   -5.78839374873   -2.00000000000
      9.76206431043   -5.92218814292   -5.78839374873   -2.00000000000
     -9.76205358197   -5.92218814292   -5.78839374873   -2.00000000000
      6.50803622848   -0.00000100232  -11.03942897843    4.00000000000
     -6.50804236645   -0.00000100232  -11.03942897843    4.00000000000
     -9.76206201519    2.96109253364   -7.78540932970    4.00000000000
      9.76205587721    2.96109253364   -7.78540932970    4.00000000000
      9.76205587721   -2.96109453828   -7.78540932970    4.00000000000
     -9.76206201519   -2.96109453828   -7.78540932970    4.00000000000
     -0.00000306899   10.36382637355   -7.78540932970    4.00000000000
     -0.00000306899  -10.36382837819   -7.78540932970    4.00000000000
     -5.23595093628    4.44163930162  -11.03942897843   -2.00000000000
      5.23594479830    4.44163930162  -11.03942897843   -2.00000000000
      5.23594479830   -4.44164130627  -11.03942897843   -2.00000000000
     -5.23595093628   -4.44164130627  -11.03942897843   -2.00000000000
    -13.01607859493    0.00000000000    0.00000000000   -2.00000000000
     13.01607859493    0.00000000000    0.00000000000   -2.00000000000
     -0.00000306899   -0.00000100232  -13.02135719699   -2.00000000000
     -3.25402271772    2.96109253364  -12.31152040860   -2.00000000000
      3.25401657974    2.96109253364  -12.31152040860   -2.00000000000
      3.25401657974   -2.96109453828  -12.31152040860   -2.00000000000
     -3.25402271772   -2.96109453828  -12.31152040860   -2.00000000000
      9.76199144908    7.40273240730   -4.59991327640    4.00000000000
      9.76199125328   -7.40273429615   -4.59991284715    4.00000000000
     -9.76212644332    7.40273240730   -4.59991327640    4.00000000000
     -9.76212663912   -7.40273429615   -4.59991284715    4.00000000000
     -1.98193128755   10.36382637355   -7.78540932970   -2.00000000000
      1.98192514957   10.36382637355   -7.78540932970   -2.00000000000
      1.98192514957  -10.36382837819   -7.78540932970   -2.00000000000
     -1.98193128755  -10.36382837819   -7.78540932970   -2.00000000000
    -13.01607322496    1.48055149700   -1.06892606631    4.00000000000
     13.01608396490    1.48055149700   -1.06892606631    4.00000000000
     13.01608411594   -1.48055312386   -1.06892138720    4.00000000000
    -13.01607307392   -1.48055312386   -1.06892138720    4.00000000000
     -6.50804236645    2.96109253364  -11.03942897843    4.00000000000
      6.50803622848    2.96109253364  -11.03942897843    4.00000000000
      6.50803622848   -2.96109453828  -11.03942897843    4.00000000000
     -6.50804236645   -2.96109453828  -11.03942897843    4.00000000000
     13.01608301889   -0.00000111986   -2.54840301833   -2.00000000000
    -13.01607417097   -0.00000111986   -2.54840301833   -2.00000000000
     -9.76205598036    8.88328009748   -1.42716235830    4.00000000000
      9.76206191204    8.88328009748   -1.42716235830    4.00000000000
      9.76206191204   -8.88328111830   -1.42716235830    4.00000000000
     -9.76205598036   -8.88328111830   -1.42716235830    4.00000000000
    -10.98081324740    7.40273235128   -1.11149163807   -2.00000000000
     10.98081945346    7.40273225558   -1.11149385695   -2.00000000000
     10.98081952031   -7.40273429859   -1.11149503385   -2.00000000000
    -10.98081388475   -7.40273407290   -1.11149295951   -2.00000000000
    -11.71498763820    4.44163885980   -4.51645492343   -2.00000000000
     11.71501060560    4.44163902122   -4.51644946585   -2.00000000000
     11.71501055042   -4.44164106579   -4.51644966155   -2.00000000000
    -11.71498756057   -4.44164116180   -4.51645509582   -2.00000000000
    -13.01607897245    2.96109155033   -0.00000271770   -2.00000000000
     13.01607821741    2.96109155033   -0.00000271770   -2.00000000000
     13.01607821741   -2.96109552160   -0.00000271770   -2.00000000000
    -13.01607897245   -2.96109552160   -0.00000271770   -2.00000000000
     -1.27209449916    7.40273283758  -11.03942897843   -2.00000000000
      1.27208836119    7.40273283758  -11.03942897843   -2.00000000000
      1.27208836119   -7.40273484223  -11.03942897843   -2.00000000000
     -1.27209449916   -7.40273484223  -11.03942897843   -2.00000000000
     -0.00000306899    2.96109253364  -13.02135719699   -2.00000000000
     -0.00000306899   -2.96109453828  -13.02135719699   -2.00000000000
      0.00000536997   13.32492564085   -1.06892606631    4.00000000000
      0.00000552101  -13.32492726771   -1.06892138720    4.00000000000
     -8.54329837208   10.36382691719   -1.11149503385   -2.00000000000
      8.54330400764   10.36382714288   -1.11149295951   -2.00000000000
      8.54330464500  -10.36382886450   -1.11149163807   -2.00000000000
     -8.54329843894  -10.36382896020   -1.11149385695   -2.00000000000
     -6.50803929747   11.84437414385    0.00000000000   -2.00000000000
      6.50803929747   11.84437414385    0.00000000000   -2.00000000000
      6.50803929747  -11.84437414385    0.00000000000   -2.00000000000
     -6.50803929747  -11.84437414385    0.00000000000   -2.00000000000
     -0.00000306899   11.84437314153   -6.51331789952   -2.00000000000
     -0.00000306899  -11.84437514617   -6.51331789952   -2.00000000000
     -2.03525914147   13.32491932750   -1.11149385695   -2.00000000000
      2.03526534753   13.32491942320   -1.11149163807   -2.00000000000
      2.03526471018  -13.32492114482   -1.11149295951   -2.00000000000
     -2.03525907462  -13.32492137051   -1.11149503385   -2.00000000000
     -3.25401428450   11.84437307286   -5.78839374873   -2.00000000000
      3.25402501297   11.84437307286   -5.78839374873   -2.00000000000
      3.25402501297  -11.84437521484   -5.78839374873   -2.00000000000
     -3.25401428450  -11.84437521484   -5.78839374873   -2.00000000000
    -11.03415344536    1.48054576566   -7.78540932970   -2.00000000000
     11.03414730738    1.48054576566   -7.78540932970   -2.00000000000
     11.03414730738   -1.48054777030   -7.78540932970   -2.00000000000
    -11.03415344536   -1.48054777030   -7.78540932970   -2.00000000000
     -7.78013379663    1.48054576566  -11.03942897843   -2.00000000000
      7.78012765865    1.48054576566  -11.03942897843   -2.00000000000
      7.78012765865   -1.48054777030  -11.03942897843   -2.00000000000
     -7.78013379663   -1.48054777030  -11.03942897843   -2.00000000000
    -13.01607409499    2.96109199200   -2.54840438198   -2.00000000000
     13.01608309487    2.96109199200   -2.54840438198   -2.00000000000
     13.01608309487   -2.96109507993   -2.54840438198   -2.00000000000
    -13.01607409499   -2.96109507993   -2.54840438198   -2.00000000000
     -9.76205236604    8.88327917115   -3.23990596489   -2.00000000000
      9.76206552636    8.88327917115   -3.23990596489   -2.00000000000
      9.76206552636   -8.88328204462   -3.23990596489   -2.00000000000
     -9.76205236604   -8.88328204462   -3.23990596489   -2.00000000000
     -3.25402271772    8.88327960557   -9.76733754826   -2.00000000000
      3.25401657974    8.88327960557   -9.76733754826   -2.00000000000
      3.25401657974   -8.88328161021   -9.76733754826   -2.00000000000
     -3.25402271772   -8.88328161021   -9.76733754826   -2.00000000000
     -3.25402271772    7.40273283758  -11.03942897843    4.00000000000
      3.25401657974    7.40273283758  -11.03942897843    4.00000000000
      3.25401657974   -7.40273484223  -11.03942897843    4.00000000000
     -3.25402271772   -7.40273484223  -11.03942897843    4.00000000000
     -8.48997058501    7.40273283758   -7.78540932970   -2.00000000000
      8.48996444703    7.40273283758   -7.78540932970   -2.00000000000
      8.48996444703   -7.40273484223   -7.78540932970   -2.00000000000
     -8.48997058501   -7.40273484223   -7.78540932970   -2.00000000000
     -4.52611414790   10.36382637355   -7.78540932970   -2.00000000000
      4.52610800992   10.36382637355   -7.78540932970   -2.00000000000
      4.52610800992  -10.36382837819   -7.78540932970   -2.00000000000
     -4.52611414790  -10.36382837819   -7.78540932970   -2.00000000000
     -7.80910728680   10.36382609315   -4.51644946585   -2.00000000000
      7.80913025419   10.36382593172   -4.51645492343   -2.00000000000
      7.80913033182  -10.36382823372   -4.51645509582   -2.00000000000
     -7.80910734197  -10.36382813772   -4.51644966155   -2.00000000000
     13.01602639119   -0.00000071014   -4.41288396045    4.00000000000
    -13.01613079868   -0.00000071014   -4.41288396045    4.00000000000
     -6.50803487351   11.84437302399   -2.54840301833   -2.00000000000
      6.50804372142   11.84437302399   -2.54840301833   -2.00000000000
      6.50804372142  -11.84437526371   -2.54840301833   -2.00000000000
     -6.50803487351  -11.84437526371   -2.54840301833   -2.00000000000
    -13.01607307392    4.44163394806   -1.06892138720    4.00000000000
     13.01608411594    4.44163394806   -1.06892138720    4.00000000000
     13.01608396490   -4.44163557493   -1.06892606631    4.00000000000
    -13.01607322496   -4.44163557493   -1.06892606631    4.00000000000
      9.76205587721   -0.00000100232   -9.76733754826   -2.00000000000
     -9.76206201519   -0.00000100232   -9.76733754826   -2.00000000000
     -9.76206201519    5.92218606960   -7.78540932970    4.00000000000
      9.76205587721    5.92218606960   -7.78540932970    4.00000000000
      9.76205587721   -5.92218807425   -7.78540932970    4.00000000000
     -9.76206201519   -5.92218807425   -7.78540932970    4.00000000000
     -3.25402271772    5.92218606960  -12.31152040860   -2.00000000000
      3.25401657974    5.92218606960  -12.31152040860   -2.00000000000
      3.25401657974   -5.92218807425  -12.31152040860   -2.00000000000
     -3.25402271772   -5.92218807425  -12.31152040860   -2.00000000000
     13.01602653134    2.96109301637   -4.41288206312    4.00000000000
     13.01602653134   -2.96109405556   -4.41288206312    4.00000000000
    -13.01613065852    2.96109301637   -4.41288206312    4.00000000000
    -13.01613065852   -2.96109405556   -4.41288206312    4.00000000000
     -4.47277394994   13.32491942320   -1.11149163807   -2.00000000000
      4.47278015600   13.32491932750   -1.11149385695   -2.00000000000
      4.47278022285  -13.32492137051   -1.11149503385   -2.00000000000
     -4.47277458729  -13.32492114482   -1.11149295951   -2.00000000000
     -6.50804236645    5.92218606960  -11.03942897843    4.00000000000
      6.50803622848    5.92218606960  -11.03942897843    4.00000000000
      6.50803622848   -5.92218807425  -11.03942897843    4.00000000000
     -6.50804236645   -5.92218807425  -11.03942897843    4.00000000000
     -9.76206201519    2.96109253364   -9.76733754826   -2.00000000000
      9.76205587721    2.96109253364   -9.76733754826   -2.00000000000
      9.76205587721   -2.96109453828   -9.76733754826   -2.00000000000
     -9.76206201519   -2.96109453828   -9.76733754826   -2.00000000000
     -1.30106804451   13.32492014998   -4.51644966155   -2.00000000000
      1.30109103436   13.32492005398   -4.51645509582   -2.00000000000
      1.30109095673  -13.32492235598   -4.51645492343   -2.00000000000
     -1.30106798933  -13.32492219455   -4.51644946585   -2.00000000000
     -0.00000306899    8.88327960557  -11.03942897843    4.00000000000
     -0.00000306899   -8.88328161021  -11.03942897843    4.00000000000
    -11.03415344536    4.44163930162   -7.78540932970   -2.00000000000
     11.03414730738    4.44163930162   -7.78540932970   -2.00000000000
     11.03414730738   -4.44164130627   -7.78540932970   -2.00000000000
    -11.03415344536   -4.44164130627   -7.78540932970   -2.00000000000
     -6.50809150121   11.84437343371   -4.41288396045    4.00000000000
      6.50798709372   11.84437343371   -4.41288396045    4.00000000000
      6.50798709372  -11.84437485399   -4.41288396045    4.00000000000
     -6.50809150121  -11.84437485399   -4.41288396045    4.00000000000
     -7.78013379663    4.44163930162  -11.03942897843   -2.00000000000
      7.78012765865    4.44163930162  -11.03942897843   -2.00000000000
      7.78012765865   -4.44164130627  -11.03942897843   -2.00000000000
     -7.78013379663   -4.44164130627  -11.03942897843   -2.00000000000
     -6.50804236645    8.88327960557   -9.05750075987   -2.00000000000
      6.50803622848    8.88327960557   -9.05750075987   -2.00000000000
      6.50803622848   -8.88328161021   -9.05750075987   -2.00000000000
     -6.50804236645   -8.88328161021   -9.05750075987   -2.00000000000
     -5.23595093628    7.40273283758  -11.03942897843   -2.00000000000
      5.23594479830    7.40273283758  -11.03942897843   -2.00000000000
      5.23594479830   -7.40273484223  -11.03942897843   -2.00000000000
     -5.23595093628   -7.40273484223  -11.03942897843   -2.00000000000
    -13.01607859493    5.92218707193    0.00000000000   -2.00000000000
     13.01607859493    5.92218707193    0.00000000000   -2.00000000000
     13.01607859493   -5.92218707193    0.00000000000   -2.00000000000
    -13.01607859493   -5.92218707193    0.00000000000   -2.00000000000
     -0.00000306899    5.92218606960  -13.02135719699   -2.00000000000
     -0.00000306899   -5.92218807425  -13.02135719699   -2.00000000000
     -0.00000306899    1.48054576566  -14.29344862716    4.00000000000
     -0.00000306899   -1.48054777030  -14.29344862716    4.00000000000
     -9.76205343167    8.88327982762   -5.78839415273   -2.00000000000
      9.76206446073    8.88327982762   -5.78839415273   -2.00000000000
      9.76206446073   -8.88328138815   -5.78839415273   -2.00000000000
     -9.76205343167   -8.88328138815   -5.78839415273   -2.00000000000
     -3.25408714585   13.32491947923   -4.59991327640    4.00000000000
      3.25395215162   13.32491947923   -4.59991327640    4.00000000000
      3.25395195581  -13.32492136807   -4.59991284715    4.00000000000
     -3.25408734165  -13.32492136807   -4.59991284715    4.00000000000
     -6.50804236645   10.36382637355   -7.78540932970    4.00000000000
      6.50803622848   10.36382637355   -7.78540932970    4.00000000000
      6.50803622848  -10.36382837819   -7.78540932970    4.00000000000
     -6.50804236645  -10.36382837819   -7.78540932970    4.00000000000
     -1.98193128755    1.48054576566  -14.29344862716   -2.00000000000
      1.98192514957    1.48054576566  -14.29344862716   -2.00000000000
      1.98192514957   -1.48054777030  -14.29344862716   -2.00000000000
     -1.98193128755   -1.48054777030  -14.29344862716   -2.00000000000
    -13.01607417097    5.92218595207   -2.54840301833   -2.00000000000
     13.01608301889    5.92218595207   -2.54840301833   -2.00000000000
     13.01608301889   -5.92218819178   -2.54840301833   -2.00000000000
    -13.01607417097   -5.92218819178   -2.54840301833   -2.00000000000
     -3.25402271772   11.84437314153   -7.78540932970    4.00000000000
      3.25401657974   11.84437314153   -7.78540932970    4.00000000000
      3.25401657974  -11.84437514617   -7.78540932970    4.00000000000
     -3.25402271772  -11.84437514617   -7.78540932970    4.00000000000
     13.01607552594   -0.00000100232   -6.51331789952   -2.00000000000
    -13.01608166392   -0.00000100232   -6.51331789952   -2.00000000000
      6.50803622848   -0.00000100232  -13.02135719699   -2.00000000000
     -6.50804236645   -0.00000100232  -13.02135719699   -2.00000000000
    -11.71498756057    7.40273298205   -4.51645509582   -2.00000000000
     11.71501055042    7.40273307806   -4.51644966155   -2.00000000000
     11.71501060560   -7.40273512263   -4.51644946585   -2.00000000000
    -11.71498763820   -7.40273528405   -4.51645492343   -2.00000000000
      3.25401657974   -0.00000100232  -14.29344862716    4.00000000000
     -3.25402271772   -0.00000100232  -14.29344862716    4.00000000000
     -0.00000037752   14.80546569418   -0.00000271770   -2.00000000000
     -0.00000037752  -14.80546966545   -0.00000271770   -2.00000000000
     -9.76206201519    1.48054576566  -11.03942897843    4.00000000000
      9.76205587721    1.48054576566  -11.03942897843    4.00000000000
      9.76205587721   -1.48054777030  -11.03942897843    4.00000000000
     -9.76206201519   -1.48054777030  -11.03942897843    4.00000000000
    -13.01608166392    2.96109253364   -6.51331789952   -2.00000000000
     13.01607552594    2.96109253364   -6.51331789952   -2.00000000000
     13.01607552594   -2.96109453828   -6.51331789952   -2.00000000000
    -13.01608166392   -2.96109453828   -6.51331789952   -2.00000000000
     -6.50804236645    2.96109253364  -13.02135719699   -2.00000000000
      6.50803622848    2.96109253364  -13.02135719699   -2.00000000000
      6.50803622848   -2.96109453828  -13.02135719699   -2.00000000000
     -6.50804236645   -2.96109453828  -13.02135719699   -2.00000000000
     -6.50803392749   13.32492564085   -1.06892606631    4.00000000000
      6.50804466744   13.32492564085   -1.06892606631    4.00000000000
      6.50804481848  -13.32492726771   -1.06892138720    4.00000000000
     -6.50803377645  -13.32492726771   -1.06892138720    4.00000000000
     -0.00000306899   11.84437314153   -9.05750075987   -2.00000000000
     -0.00000306899  -11.84437514617   -9.05750075987   -2.00000000000
     -3.25402271772    2.96109253364  -14.29344862716    4.00000000000
      3.25401657974    2.96109253364  -14.29344862716    4.00000000000
      3.25401657974   -2.96109453828  -14.29344862716    4.00000000000
     -3.25402271772   -2.96109453828  -14.29344862716    4.00000000000
      9.76199125328   10.36382691963   -4.59991284715    4.00000000000
      9.76199144908  -10.36382880847   -4.59991327640    4.00000000000
     -9.76212663912   10.36382691963   -4.59991284715    4.00000000000
     -9.76212644332  -10.36382880847   -4.59991327640    4.00000000000
     13.01602639119    5.92218636178   -4.41288396045    4.00000000000
     13.01602639119   -5.92218778207   -4.41288396045    4.00000000000
    -13.01613079868    5.92218636178   -4.41288396045    4.00000000000
    -13.01613079868   -5.92218778207   -4.41288396045    4.00000000000
     -0.00000306899    4.44163930162  -14.29344862716    4.00000000000
     -0.00000306899   -4.44164130627  -14.29344862716    4.00000000000
     -5.20694826311   13.32492005398   -4.51645509582   -2.00000000000
      5.20697125296   13.32492014998   -4.51644966155   -2.00000000000
      5.20697130813  -13.32492219455   -4.51644946585   -2.00000000000
     -5.20694834074  -13.32492235598   -4.51645492343   -2.00000000000
     -6.50804236645   11.84437314153   -6.51331789952   -2.00000000000
      6.50803622848   11.84437314153   -6.51331789952   -2.00000000000
      6.50803622848  -11.84437514617   -6.51331789952   -2.00000000000
     -6.50804236645  -11.84437514617   -6.51331789952   -2.00000000000
    -13.01607322496    7.40273856892   -1.06892606631    4.00000000000
     13.01608396490    7.40273856892   -1.06892606631    4.00000000000
     13.01608411594   -7.40274019579   -1.06892138720    4.00000000000
    -13.01607307392   -7.40274019579   -1.06892138720    4.00000000000
      0.00000449994   14.80546613585   -2.54840438198   -2.00000000000
      0.00000449994  -14.80546922378   -2.54840438198   -2.00000000000
     -9.76206201519    5.92218606960   -9.76733754826   -2.00000000000
      9.76205587721    5.92218606960   -9.76733754826   -2.00000000000
      9.76205587721   -5.92218807425   -9.76733754826   -2.00000000000
     -9.76206201519   -5.92218807425   -9.76733754826   -2.00000000000
     -4.52611414790    1.48054576566  -14.29344862716   -2.00000000000
      4.52610800992    1.48054576566  -14.29344862716   -2.00000000000
      4.52610800992   -1.48054777030  -14.29344862716   -2.00000000000
     -4.52611414790   -1.48054777030  -14.29344862716   -2.00000000000
    -14.31714663944    1.48054600613   -4.51644966155   -2.00000000000
     14.31716962929    1.48054591013   -4.51645509582   -2.00000000000
     14.31716955166   -1.48054821213   -4.51645492343   -2.00000000000
    -14.31714658426   -1.48054805070   -4.51644946585   -2.00000000000
     -1.98193128755    4.44163930162  -14.29344862716   -2.00000000000
      1.98192514957    4.44163930162  -14.29344862716   -2.00000000000
      1.98192514957   -4.44164130627  -14.29344862716   -2.00000000000
     -1.98193128755   -4.44164130627  -14.29344862716   -2.00000000000
    -10.98081388475   10.36382714288   -1.11149295951   -2.00000000000
     10.98081952031   10.36382691719   -1.11149503385   -2.00000000000
     10.98081945346  -10.36382896020   -1.11149385695   -2.00000000000
    -10.98081324740  -10.36382886450   -1.11149163807   -2.00000000000
    -15.05133773640    1.48054518365   -1.11149385695   -2.00000000000
     15.05134394246    1.48054527935   -1.11149163807   -2.00000000000
     15.05134330511   -1.48054700097   -1.11149295951   -2.00000000000
    -15.05133766955   -1.48054722666   -1.11149503385   -2.00000000000
     -1.27209449916   10.36382637355  -11.03942897843   -2.00000000000
      1.27208836119   10.36382637355  -11.03942897843   -2.00000000000
      1.27208836119  -10.36382837819  -11.03942897843   -2.00000000000
     -1.27209449916  -10.36382837819  -11.03942897843   -2.00000000000
     -3.25401668289   14.80546716940   -1.42716235830    4.00000000000
      3.25402261457   14.80546716940   -1.42716235830    4.00000000000
      3.25402261457  -14.80546819023   -1.42716235830    4.00000000000
     -3.25401668289  -14.80546819023   -1.42716235830    4.00000000000
    -13.01608166392    1.48054576566   -7.78540932970    4.00000000000
     13.01607552594    1.48054576566   -7.78540932970    4.00000000000
     13.01607552594   -1.48054777030   -7.78540932970    4.00000000000
    -13.01608166392   -1.48054777030   -7.78540932970    4.00000000000
     -9.76206201519    8.88327960557   -7.78540932970    4.00000000000
      9.76205587721    8.88327960557   -7.78540932970    4.00000000000
      9.76205587721   -8.88328161021   -7.78540932970    4.00000000000
     -9.76206201519   -8.88328161021   -7.78540932970    4.00000000000
     -9.76206201519    4.44163930162  -11.03942897843    4.00000000000
      9.76205587721    4.44163930162  -11.03942897843    4.00000000000
      9.76205587721   -4.44164130627  -11.03942897843    4.00000000000
     -9.76206201519   -4.44164130627  -11.03942897843    4.00000000000
    -11.03415344536    7.40273283758   -7.78540932970   -2.00000000000
     11.03414730738    7.40273283758   -7.78540932970   -2.00000000000
     11.03414730738   -7.40273484223   -7.78540932970   -2.00000000000
    -11.03415344536   -7.40273484223   -7.78540932970   -2.00000000000
     -7.78013379663    7.40273283758  -11.03942897843   -2.00000000000
      7.78012765865    7.40273283758  -11.03942897843   -2.00000000000
      7.78012765865   -7.40273484223  -11.03942897843   -2.00000000000
     -7.78013379663   -7.40273484223  -11.03942897843   -2.00000000000
     -9.76205540302   11.84437302349   -1.42716202606    4.00000000000
      9.76206248938   11.84437302349   -1.42716202606    4.00000000000
      9.76206248938  -11.84437526421   -1.42716202606    4.00000000000
     -9.76205540302  -11.84437526421   -1.42716202606    4.00000000000
     -0.00000306899   13.32491990951   -7.78540932970    4.00000000000
     -0.00000306899  -13.32492191415   -7.78540932970    4.00000000000
     -0.00005206359   14.80546716022   -4.41288206312    4.00000000000
     -0.00005206359  -14.80546819941   -4.41288206312    4.00000000000
     -3.25402271772   10.36382637355  -11.03942897843    4.00000000000
      3.25401657974   10.36382637355  -11.03942897843    4.00000000000
      3.25401657974  -10.36382837819  -11.03942897843    4.00000000000
     -3.25402271772  -10.36382837819  -11.03942897843    4.00000000000
     -8.48997058501   10.36382637355   -7.78540932970   -2.00000000000
      8.48996444703   10.36382637355   -7.78540932970   -2.00000000000
      8.48996444703  -10.36382837819   -7.78540932970   -2.00000000000
     -8.48997058501  -10.36382837819   -7.78540932970   -2.00000000000
     -3.25401306857   14.80546624308   -3.23990596489   -2.00000000000
      3.25402622890   14.80546624308   -3.23990596489   -2.00000000000
      3.25402622890  -14.80546911655   -3.23990596489   -2.00000000000
     -3.25401306857  -14.80546911655   -3.23990596489   -2.00000000000
     -3.25402271772    8.88327960557  -12.31152040860   -2.00000000000
      3.25401657974    8.88327960557  -12.31152040860   -2.00000000000
      3.25401657974   -8.88328161021  -12.31152040860   -2.00000000000
     -3.25402271772   -8.88328161021  -12.31152040860   -2.00000000000
     -1.98193128755   13.32491990951   -7.78540932970   -2.00000000000
      1.98192514957   13.32491990951   -7.78540932970   -2.00000000000
      1.98192514957  -13.32492191415   -7.78540932970   -2.00000000000
     -1.98193128755  -13.32492191415   -7.78540932970   -2.00000000000
     -0.00000306899   -0.00000100232  -15.56554005734   -2.00000000000
     -6.50804236645    8.88327960557  -11.03942897843    4.00000000000
      6.50803622848    8.88327960557  -11.03942897843    4.00000000000
      6.50803622848   -8.88328161021  -11.03942897843    4.00000000000
     -6.50804236645   -8.88328161021  -11.03942897843    4.00000000000
     -4.52611414790    4.44163930162  -14.29344862716   -2.00000000000
      4.52610800992    4.44163930162  -14.29344862716   -2.00000000000
      4.52610800992   -4.44164130627  -14.29344862716   -2.00000000000
     -4.52611414790   -4.44164130627  -14.29344862716   -2.00000000000
    -14.31714658426    4.44163902122   -4.51644946585   -2.00000000000
     14.31716955166    4.44163885980   -4.51645492343   -2.00000000000
     14.31716962929   -4.44164116180   -4.51645509582   -2.00000000000
    -14.31714663944   -4.44164106579   -4.51644966155   -2.00000000000
     -9.76205256063   11.84437350720   -3.23990501486   -2.00000000000
      9.76206533176   11.84437350720   -3.23990501486   -2.00000000000
      9.76206533176  -11.84437478050   -3.23990501486   -2.00000000000
     -9.76205256063  -11.84437478050   -3.23990501486   -2.00000000000
     -3.25402271772   11.84437314153   -9.76733754826   -2.00000000000
      3.25401657974   11.84437314153   -9.76733754826   -2.00000000000
      3.25401657974  -11.84437514617   -9.76733754826   -2.00000000000
     -3.25402271772  -11.84437514617   -9.76733754826   -2.00000000000
      9.76205587721   -0.00000100232  -12.31152040860   -2.00000000000
     -9.76206201519   -0.00000100232  -12.31152040860   -2.00000000000
    -13.01608166392    5.92218606960   -6.51331789952   -2.00000000000
     13.01607552594    5.92218606960   -6.51331789952   -2.00000000000
     13.01607552594   -5.92218807425   -6.51331789952   -2.00000000000
    -13.01608166392   -5.92218807425   -6.51331789952   -2.00000000000
     -6.50804236645    5.92218606960  -13.02135719699   -2.00000000000
      6.50803622848    5.92218606960  -13.02135719699   -2.00000000000
      6.50803622848   -5.92218807425  -13.02135719699   -2.00000000000
     -6.50804236645   -5.92218807425  -13.02135719699   -2.00000000000
    -15.05133766955    4.44163984526   -1.11149503385   -2.00000000000
     15.05134330511    4.44164007096   -1.11149295951   -2.00000000000
     15.05134394246   -4.44164179257   -1.11149163807   -2.00000000000
    -15.05133773640   -4.44164188827   -1.11149385695   -2.00000000000
    -13.01607897245    8.88327862225   -0.00000271770   -2.00000000000
     13.01607821741    8.88327862225   -0.00000271770   -2.00000000000
     13.01607821741   -8.88328259352   -0.00000271770   -2.00000000000
    -13.01607897245   -8.88328259352   -0.00000271770   -2.00000000000
     -0.00000306899    8.88327960557  -13.02135719699   -2.00000000000
     -0.00000306899   -8.88328161021  -13.02135719699   -2.00000000000
     -6.50804236645    1.48054576566  -14.29344862716    4.00000000000
      6.50803622848    1.48054576566  -14.29344862716    4.00000000000
      6.50803622848   -1.48054777030  -14.29344862716    4.00000000000
     -6.50804236645   -1.48054777030  -14.29344862716    4.00000000000
    -13.01608166392    4.44163930162   -7.78540932970    4.00000000000
     13.01607552594    4.44163930162   -7.78540932970    4.00000000000
     13.01607552594   -4.44164130627   -7.78540932970    4.00000000000
    -13.01608166392   -4.44164130627   -7.78540932970    4.00000000000
     -3.25402271772    5.92218606960  -14.29344862716    4.00000000000
      3.25401657974    5.92218606960  -14.29344862716    4.00000000000
      3.25401657974   -5.92218807425  -14.29344862716    4.00000000000
     -3.25402271772   -5.92218807425  -14.29344862716    4.00000000000
     -0.00000306899    2.96109253364  -15.56554005734   -2.00000000000
     -0.00000306899   -2.96109453828  -15.56554005734   -2.00000000000
     13.01607552594   -0.00000100232   -9.05750075987   -2.00000000000
    -13.01608166392   -0.00000100232   -9.05750075987   -2.00000000000
     -8.54329843894   13.32491932750   -1.11149385695   -2.00000000000
      8.54330464500   13.32491942320   -1.11149163807   -2.00000000000
      8.54330400764  -13.32492114482   -1.11149295951   -2.00000000000
     -8.54329837208  -13.32492137051   -1.11149503385   -2.00000000000
    -13.01607409499    8.88327906392   -2.54840438198   -2.00000000000
     13.01608309487    8.88327906392   -2.54840438198   -2.00000000000
     13.01608309487   -8.88328215185   -2.54840438198   -2.00000000000
    -13.01607409499   -8.88328215185   -2.54840438198   -2.00000000000
     -9.76206201519    2.96109253364  -12.31152040860   -2.00000000000
      9.76205587721    2.96109253364  -12.31152040860   -2.00000000000
      9.76205587721   -2.96109453828  -12.31152040860   -2.00000000000
     -9.76206201519   -2.96109453828  -12.31152040860   -2.00000000000
     -5.23595093628   10.36382637355  -11.03942897843   -2.00000000000
      5.23594479830   10.36382637355  -11.03942897843   -2.00000000000
      5.23594479830  -10.36382837819  -11.03942897843   -2.00000000000
     -5.23595093628  -10.36382837819  -11.03942897843   -2.00000000000
     -4.52611414790   13.32491990951   -7.78540932970   -2.00000000000
      4.52610800992   13.32491990951   -7.78540932970   -2.00000000000
      4.52610800992  -13.32492191415   -7.78540932970   -2.00000000000
     -4.52611414790  -13.32492191415   -7.78540932970   -2.00000000000
     -7.80910734197   13.32492014998   -4.51644966155   -2.00000000000
      7.80913033182   13.32492005398   -4.51645509582   -2.00000000000
      7.80913025419  -13.32492235598   -4.51645492343   -2.00000000000
     -7.80910728680  -13.32492219455   -4.51644946585   -2.00000000000
     -0.00000306899    7.40273283758  -14.29344862716    4.00000000000
     -0.00000306899   -7.40273484223  -14.29344862716    4.00000000000
    -13.01608166392    2.96109253364   -9.05750075987   -2.00000000000
     13.01607552594    2.96109253364   -9.05750075987   -2.00000000000
     13.01607552594   -2.96109453828   -9.05750075987   -2.00000000000
    -13.01608166392   -2.96109453828   -9.05750075987   -2.00000000000
     -6.50803967498   14.80546569418   -0.00000271770   -2.00000000000
      6.50803891995   14.80546569418   -0.00000271770   -2.00000000000
      6.50803891995  -14.80546966545   -0.00000271770   -2.00000000000
     -6.50803967498  -14.80546966545   -0.00000271770   -2.00000000000
     -0.00000306899   14.80546667749   -6.51331789952   -2.00000000000
     -0.00000306899  -14.80546868213   -6.51331789952   -2.00000000000
    -11.74399023374    1.48054576566  -11.03942897843   -2.00000000000
     11.74398409577    1.48054576566  -11.03942897843   -2.00000000000
     11.74398409577   -1.48054777030  -11.03942897843   -2.00000000000
    -11.74399023374   -1.48054777030  -11.03942897843   -2.00000000000
     -0.00000306899   11.84437314153  -11.03942897843    4.00000000000
     -0.00000306899  -11.84437514617  -11.03942897843    4.00000000000
     -1.98193128755    7.40273283758  -14.29344862716   -2.00000000000
      1.98192514957    7.40273283758  -14.29344862716   -2.00000000000
      1.98192514957   -7.40273484223  -14.29344862716   -2.00000000000
     -1.98193128755   -7.40273484223  -14.29344862716   -2.00000000000
     -3.25401413420   14.80546689955   -5.78839415273   -2.00000000000
      3.25402516327   14.80546689955   -5.78839415273   -2.00000000000
      3.25402516327  -14.80546846008   -5.78839415273   -2.00000000000
     -3.25401413420  -14.80546846008   -5.78839415273   -2.00000000000
     -6.50804236645   11.84437314153   -9.05750075987   -2.00000000000
      6.50803622848   11.84437314153   -9.05750075987   -2.00000000000
      6.50803622848  -11.84437514617   -9.05750075987   -2.00000000000
     -6.50804236645  -11.84437514617   -9.05750075987   -2.00000000000
    -11.71498763820   10.36382593172   -4.51645492343   -2.00000000000
     11.71501060560   10.36382609315   -4.51644946585   -2.00000000000
     11.71501055042  -10.36382813772   -4.51644966155   -2.00000000000
    -11.71498756057  -10.36382823372   -4.51645509582   -2.00000000000
      0.00000552101   16.28600809192   -1.06892138720    4.00000000000
      0.00000536997  -16.28600971878   -1.06892606631    4.00000000000
     -6.50804236645    4.44163930162  -14.29344862716    4.00000000000
      6.50803622848    4.44163930162  -14.29344862716    4.00000000000
      6.50803622848   -4.44164130627  -14.29344862716    4.00000000000
     -6.50804236645   -4.44164130627  -14.29344862716    4.00000000000
     16.27010178684   -0.00000112036   -1.42716202606    4.00000000000
    -16.27009470048   -0.00000112036   -1.42716202606    4.00000000000
     13.01602653134    8.88328008829   -4.41288206312    4.00000000000
     13.01602653134   -8.88328112748   -4.41288206312    4.00000000000
    -13.01613065852    8.88328008829   -4.41288206312    4.00000000000
    -13.01613065852   -8.88328112748   -4.41288206312    4.00000000000
     -6.50803479753   14.80546613585   -2.54840438198   -2.00000000000
      6.50804379741   14.80546613585   -2.54840438198   -2.00000000000
      6.50804379741  -14.80546922378   -2.54840438198   -2.00000000000
     -6.50803479753  -14.80546922378   -2.54840438198   -2.00000000000
     -9.76205358197   11.84437307286   -5.78839374873   -2.00000000000
      9.76206431043   11.84437307286   -5.78839374873   -2.00000000000
      9.76206431043  -11.84437521484   -5.78839374873   -2.00000000000
     -9.76205358197  -11.84437521484   -5.78839374873   -2.00000000000
     -9.76206201519    8.88327960557   -9.76733754826   -2.00000000000
      9.76205587721    8.88327960557   -9.76733754826   -2.00000000000
      9.76205587721   -8.88328161021   -9.76733754826   -2.00000000000
     -9.76206201519   -8.88328161021   -9.76733754826   -2.00000000000
     -2.03525907462   16.28601398911   -1.11149503385   -2.00000000000
      2.03526471018   16.28601421481   -1.11149295951   -2.00000000000
      2.03526534753  -16.28601593642   -1.11149163807   -2.00000000000
     -2.03525914147  -16.28601603212   -1.11149385695   -2.00000000000
     -9.76206201519    7.40273283758  -11.03942897843    4.00000000000
      9.76205587721    7.40273283758  -11.03942897843    4.00000000000
      9.76205587721   -7.40273484223  -11.03942897843    4.00000000000
     -9.76206201519   -7.40273484223  -11.03942897843    4.00000000000
     16.27010462923   -0.00000063665   -3.23990501486   -2.00000000000
    -16.27009185810   -0.00000063665   -3.23990501486   -2.00000000000
      3.25401657974   -0.00000100232  -16.27537684572   -2.00000000000
     -3.25402271772   -0.00000100232  -16.27537684572   -2.00000000000
    -16.27009527782    2.96109302555   -1.42716235830    4.00000000000
     16.27010120950    2.96109302555   -1.42716235830    4.00000000000
     16.27010120950   -2.96109404638   -1.42716235830    4.00000000000
    -16.27009527782   -2.96109404638   -1.42716235830    4.00000000000
     -0.00000306899    5.92218606960  -15.56554005734   -2.00000000000
     -0.00000306899   -5.92218807425  -15.56554005734   -2.00000000000
    -13.01607307392   10.36382101999   -1.06892138720    4.00000000000
     13.01608411594   10.36382101999   -1.06892138720    4.00000000000
     13.01608396490  -10.36382264685   -1.06892606631    4.00000000000
    -13.01607322496  -10.36382264685   -1.06892606631    4.00000000000
     -8.48997058501    1.48054576566  -14.29344862716   -2.00000000000
      8.48996444703    1.48054576566  -14.29344862716   -2.00000000000
      8.48996444703   -1.48054777030  -14.29344862716   -2.00000000000
     -8.48997058501   -1.48054777030  -14.29344862716   -2.00000000000
    -11.74399023374    4.44163930162  -11.03942897843   -2.00000000000
     11.74398409577    4.44163930162  -11.03942897843   -2.00000000000
     11.74398409577   -4.44164130627  -11.03942897843   -2.00000000000
    -11.74399023374   -4.44164130627  -11.03942897843   -2.00000000000
     -4.52611414790    7.40273283758  -14.29344862716   -2.00000000000
      4.52610800992    7.40273283758  -14.29344862716   -2.00000000000
      4.52610800992   -7.40273484223  -14.29344862716   -2.00000000000
     -4.52611414790   -7.40273484223  -14.29344862716   -2.00000000000
    -14.31714663944    7.40273307806   -4.51644966155   -2.00000000000
     14.31716962929    7.40273298205   -4.51645509582   -2.00000000000
     14.31716955166   -7.40273528405   -4.51645492343   -2.00000000000
    -14.31714658426   -7.40273512263   -4.51644946585   -2.00000000000
     -6.50804236645   13.32491990951   -7.78540932970    4.00000000000
      6.50803622848   13.32491990951   -7.78540932970    4.00000000000
      6.50803622848  -13.32492191415   -7.78540932970    4.00000000000
     -6.50804236645  -13.32492191415   -7.78540932970    4.00000000000
     -6.50809136106   14.80546716022   -4.41288206312    4.00000000000
      6.50798723387   14.80546716022   -4.41288206312    4.00000000000
      6.50798723387  -14.80546819941   -4.41288206312    4.00000000000
     -6.50809136106  -14.80546819941   -4.41288206312    4.00000000000
     -9.76206201519    5.92218606960  -12.31152040860   -2.00000000000
      9.76205587721    5.92218606960  -12.31152040860   -2.00000000000
      9.76205587721   -5.92218807425  -12.31152040860   -2.00000000000
     -9.76206201519   -5.92218807425  -12.31152040860   -2.00000000000
    -15.05133773640    7.40273225558   -1.11149385695   -2.00000000000
     15.05134394246    7.40273235128   -1.11149163807   -2.00000000000
     15.05134330511   -7.40273407290   -1.11149295951   -2.00000000000
    -15.05133766955   -7.40273429859   -1.11149503385   -2.00000000000
    -16.27009166350    2.96109209923   -3.23990596489   -2.00000000000
     16.27010482383    2.96109209923   -3.23990596489   -2.00000000000
     16.27010482383   -2.96109497270   -3.23990596489   -2.00000000000
    -16.27009166350   -2.96109497270   -3.23990596489   -2.00000000000
     -3.25402271772    2.96109253364  -16.27537684572   -2.00000000000
      3.25401657974    2.96109253364  -16.27537684572   -2.00000000000
      3.25401657974   -2.96109453828  -16.27537684572   -2.00000000000
     -3.25402271772   -2.96109453828  -16.27537684572   -2.00000000000
      6.50803622848   -0.00000100232  -15.56554005734   -2.00000000000
     -6.50804236645   -0.00000100232  -15.56554005734   -2.00000000000
    -13.01608166392    7.40273283758   -7.78540932970    4.00000000000
     13.01607552594    7.40273283758   -7.78540932970    4.00000000000
     13.01607552594   -7.40273484223   -7.78540932970    4.00000000000
    -13.01608166392   -7.40273484223   -7.78540932970    4.00000000000
     -4.47277458729   16.28601421481   -1.11149295951   -2.00000000000
      4.47278022285   16.28601398911   -1.11149503385   -2.00000000000
      4.47278015600  -16.28601603212   -1.11149385695   -2.00000000000
     -4.47277394994  -16.28601593642   -1.11149163807   -2.00000000000
    -13.01608166392    5.92218606960   -9.05750075987   -2.00000000000
     13.01607552594    5.92218606960   -9.05750075987   -2.00000000000
     13.01607552594   -5.92218807425   -9.05750075987   -2.00000000000
    -13.01608166392   -5.92218807425   -9.05750075987   -2.00000000000
     -1.30106798933   16.28601316507   -4.51644946585   -2.00000000000
      1.30109095673   16.28601300365   -4.51645492343   -2.00000000000
      1.30109103436  -16.28601530565   -4.51645509582   -2.00000000000
     -1.30106804451  -16.28601520964   -4.51644966155   -2.00000000000
    -14.99800988248    1.48054576566   -7.78540932970   -2.00000000000
     14.99800374450    1.48054576566   -7.78540932970   -2.00000000000
     14.99800374450   -1.48054777030   -7.78540932970   -2.00000000000
    -14.99800988248   -1.48054777030   -7.78540932970   -2.00000000000
     16.27003074655    1.48054533538   -4.59991327640    4.00000000000
     16.27003055074   -1.48054722422   -4.59991284715    4.00000000000
    -16.27016574078    1.48054533538   -4.59991327640    4.00000000000
    -16.27016593658   -1.48054722422   -4.59991284715    4.00000000000
    -11.03415344536   10.36382637355   -7.78540932970   -2.00000000000
     11.03414730738   10.36382637355   -7.78540932970   -2.00000000000
[...]
 avg/min projected vLNO norm    1.0000E+00    1.0000E+00
 Number of Cholesky vectors:      7
 MP2 energy in LIS [au]:         -0.070762950474
 Correction for frozen LNO [au]: -0.000494921534     (0.695%)
 Number of NAFs:                300  (14.79%)
 CPU time [min]:  1441.860                   Wall time [min]:    20.148
 

 Direct DF-CCSD(T) calculation
 
 Convergence criterion:  1.0E-05
 
 Number of occupied/virtual/auxiliary orbitals:    18    91   300
    189.08 MB is the minimal memory requirement for (T)
    128.05 MB is the minimal memory requirement for CCSD
 
 MP2 correlation energy [au]:        -0.623062077788
 
 LMP2 domain correlation energy contribution [au]:       -0.070766612420
 
 CPU time [min]:  1442.007                   Wall time [min]:    20.150
 
 
 Starting CCSD iterations...
 
                     Residual norm       Correlation Energy
 Iteration  1        0.232607056289       -0.616593840125
 Iteration  2        0.093388655367       -0.639822174240
 Iteration  3        0.038919907069       -0.648562550990
 Iteration  4        0.014357046554       -0.648241481772
 Iteration  5        0.006462931827       -0.648461329374
 Iteration  6        0.002271645087       -0.648569164444
 Iteration  7        0.001036034544       -0.648562334697
 Iteration  8        0.000457156461       -0.648556457484
 Iteration  9        0.000260026009       -0.648566293489
 Iteration 10        0.000152666561       -0.648562626562
 Iteration 11        0.000109840246       -0.648561315240
 Iteration 12        0.000083876565       -0.648562994659
 
 CCSD iteration has converged in 12 steps.
      383.20 MB memory was utilized by CCSD
 
 T1 diagnostic:      2.423E-02            D1 diagnostic:      1.069E-01
 
 Warning: large CCSD amplitude found
 Largest T1 amplitude:  6.25E-02
 Largest T2 amplitude: -3.25E-01
 
 CCSD correlation energy [au]:          -0.070670259115
 
 CPU time [min]:  1445.464                   Wall time [min]:    20.200
 
 Calculation of (T) correction...
 
 Laplace threshold, nquadmin:  1.00E-02   3
 Number of quadrature points:    3
 
      278.05 MB memory is utilized for (T)

 0%       25%       50%       75%       100%
 |---------|---------|---------|---------| 
 
 (T) correction [au]:                   -0.002553856533
 CCSD(T) correlation energy [au]:       -0.073224115649
 
 CPU time [min]:  1449.252                   Wall time [min]:    20.255
 
 MO:    34
 Number of atoms in domain:      12
 Number of atomic orbitals:     756
 Number of atoms for local DF:   12
 Number of fitting functions:  2028 (100.00%)
 Warning: drop high-lying PAOs                    12
 Number of occupied orbitals:    32
 Number of virtual  orbitals:   680
 Number of Cholesky vectors:      8
 MP2 energy in ED [au]:          -0.075345694150
 Number of occupied LNOs:        20  (62.50%)
 Number of virtual  LNOs:       105  (15.44%)
 avg/min projected vLNO norm    1.0000E+00    1.0000E+00
 Number of Cholesky vectors:      7
 MP2 energy in LIS [au]:         -0.074704578143
 Correction for frozen LNO [au]: -0.000641116006     (0.851%)
 Number of NAFs:                361  (17.80%)
 CPU time [min]:  1488.038                   Wall time [min]:    20.795
 

 Direct DF-CCSD(T) calculation
 
 Convergence criterion:  1.0E-05
 
 Number of occupied/virtual/auxiliary orbitals:    20   105   361
    273.07 MB is the minimal memory requirement for (T)
    175.23 MB is the minimal memory requirement for CCSD
 
 MP2 correlation energy [au]:        -0.745258148673
 
 LMP2 domain correlation energy contribution [au]:       -0.074706692607
 
 CPU time [min]:  1488.216                   Wall time [min]:    20.797
 
 
 Starting CCSD iterations...
 
                     Residual norm       Correlation Energy
 Iteration  1        0.273133901458       -0.717352467632
 Iteration  2        0.143944259378       -0.750049893772
 Iteration  3        0.047491057651       -0.759061082343
 Iteration  4        0.018401231781       -0.759556389884
 Iteration  5        0.009066166873       -0.759615157306
 Iteration  6        0.003697495303       -0.759753413045
 Iteration  7        0.001474093851       -0.759799623995
 Iteration  8        0.000578288216       -0.759794386005
 Iteration  9        0.000308922747       -0.759798467122
 Iteration 10        0.000168505655       -0.759799037573
 Iteration 11        0.000103481615       -0.759797792479
 Iteration 12        0.000066915526       -0.759797123195
 
 CCSD iteration has converged in 12 steps.
      629.68 MB memory was utilized by CCSD
 
 T1 diagnostic:      2.685E-02            D1 diagnostic:      1.184E-01
 
 Warning: large CCSD amplitude found
 Largest T1 amplitude: -5.92E-02
 Largest T2 amplitude: -3.08E-01
 
 CCSD correlation energy [au]:          -0.073625240242
 
 CPU time [min]:  1493.376                   Wall time [min]:    20.873
 
 Calculation of (T) correction...
 
 Laplace threshold, nquadmin:  1.00E-02   3
 Number of quadrature points:    3
 
      428.61 MB memory is utilized for (T)

 0%       25%       50%       75%       100%
 |---------|---------|---------|---------| 
 
 (T) correction [au]:                   -0.003408181864
 CCSD(T) correlation energy [au]:       -0.077033422106
 
 CPU time [min]:  1499.791                   Wall time [min]:    20.966
 
 MO:    35
 Number of atoms in domain:      12
 Number of atomic orbitals:     756
 Number of atoms for local DF:   12
 Number of fitting functions:  2028 (100.00%)
 Warning: drop high-lying PAOs                    12
 Number of occupied orbitals:    37
 Number of virtual  orbitals:   680
 Number of Cholesky vectors:      8
 MP2 energy in ED [au]:          -0.079413348646
 Number of occupied LNOs:        30  (81.08%)
 Number of virtual  LNOs:       127  (18.68%)
 avg/min projected vLNO norm    1.0000E+00    1.0000E+00
 Number of Cholesky vectors:      7
 MP2 energy in LIS [au]:         -0.078657042988
 Correction for frozen LNO [au]: -0.000756305658     (0.952%)
 Number of NAFs:                466  (22.98%)
 CPU time [min]:  1544.241                   Wall time [min]:    21.593
 

 Direct DF-CCSD(T) calculation
 
 Convergence criterion:  1.0E-05
 
 Number of occupied/virtual/auxiliary orbitals:    30   127   466
    539.64 MB is the minimal memory requirement for (T)
    357.96 MB is the minimal memory requirement for CCSD
 
 MP2 correlation energy [au]:        -0.918726704163
 
 LMP2 domain correlation energy contribution [au]:       -0.078661228231
 
 CPU time [min]:  1544.483                   Wall time [min]:    21.596
 
 
 Starting CCSD iterations...
 
                     Residual norm       Correlation Energy
 Iteration  1        0.303977090555       -0.876844517234
 Iteration  2        0.156748279175       -0.920169507934
 Iteration  3        0.047413510631       -0.928438821138
 Iteration  4        0.019160158114       -0.929048592818
 Iteration  5        0.009163169563       -0.928794124954
 Iteration  6        0.004428352676       -0.928968395013
 Iteration  7        0.002229646374       -0.928991890755
 Iteration  8        0.001445094345       -0.928989102437
 Iteration  9        0.001033676697       -0.928995867382
 Iteration 10        0.000563006789       -0.928990084763
 Iteration 11        0.000303475418       -0.928984340248
 Iteration 12        0.000142996178       -0.928984127007
 Iteration 13        0.000073943668       -0.928984353732
 
 CCSD iteration has converged in 13 steps.
     1328.43 MB memory was utilized by CCSD
 
 T1 diagnostic:      2.471E-02            D1 diagnostic:      1.209E-01
 
 Warning: large CCSD amplitude found
 Largest T1 amplitude:  8.23E-02
 Largest T2 amplitude: -2.72E-01
 
 CCSD correlation energy [au]:          -0.076466588347
 
 CPU time [min]:  1561.010                   Wall time [min]:    21.839
 
 Calculation of (T) correction...
 
 Laplace threshold, nquadmin:  1.00E-02   3
 Number of quadrature points:    3
 
     1015.89 MB memory is utilized for (T)

 0%       25%       50%       75%       100%
 |---------|---------|---------|---------| 
 
 (T) correction [au]:                   -0.004065834771
 CCSD(T) correlation energy [au]:       -0.080532423118
 
 CPU time [min]:  1580.162                   Wall time [min]:    22.114
 
 MO:    36
 Number of atoms in domain:      12
 Number of atomic orbitals:     756
 Number of atoms for local DF:   12
 Number of fitting functions:  2028 (100.00%)
 Warning: drop high-lying PAOs                    12
 Number of occupied orbitals:    32
 Number of virtual  orbitals:   680
 Number of Cholesky vectors:      8
 MP2 energy in ED [au]:          -0.075344699646
 Number of occupied LNOs:        20  (62.50%)
 Number of virtual  LNOs:       105  (15.44%)
 avg/min projected vLNO norm    1.0000E+00    1.0000E+00
 Number of Cholesky vectors:      7
 MP2 energy in LIS [au]:         -0.074704102813
 Correction for frozen LNO [au]: -0.000640596833     (0.850%)
 Number of NAFs:                361  (17.80%)
 CPU time [min]:  1618.998                   Wall time [min]:    22.654
 

 Direct DF-CCSD(T) calculation
 
 Convergence criterion:  1.0E-05
 
 Number of occupied/virtual/auxiliary orbitals:    20   105   361
    273.07 MB is the minimal memory requirement for (T)
    175.23 MB is the minimal memory requirement for CCSD
 
 MP2 correlation energy [au]:        -0.745210814072
 
 LMP2 domain correlation energy contribution [au]:       -0.074706239149
 
 CPU time [min]:  1619.161                   Wall time [min]:    22.657
 
 
 Starting CCSD iterations...
 
                     Residual norm       Correlation Energy
 Iteration  1        0.273122454923       -0.717335147504
 Iteration  2        0.143923291851       -0.750025409684
 Iteration  3        0.047493888723       -0.759034374140
 Iteration  4        0.018401396758       -0.759529752597
 Iteration  5        0.009064294173       -0.759588493319
 Iteration  6        0.003695523345       -0.759726600507
 Iteration  7        0.001474087633       -0.759772734451
 Iteration  8        0.000578477084       -0.759767550658
 Iteration  9        0.000308971171       -0.759771640625
 Iteration 10        0.000168564803       -0.759772210310
 Iteration 11        0.000103605789       -0.759770960216
 Iteration 12        0.000067018083       -0.759770289993
 
 CCSD iteration has converged in 12 steps.
      629.68 MB memory was utilized by CCSD
 
 T1 diagnostic:      2.685E-02            D1 diagnostic:      1.184E-01
 
 Warning: large CCSD amplitude found
 Largest T1 amplitude:  5.92E-02
 Largest T2 amplitude: -3.08E-01
 
 CCSD correlation energy [au]:          -0.073625066743
 
 CPU time [min]:  1624.372                   Wall time [min]:    22.732
 
 Calculation of (T) correction...
 
 Laplace threshold, nquadmin:  1.00E-02   3
 Number of quadrature points:    3
 
      428.61 MB memory is utilized for (T)

 0%       25%       50%       75%       100%
 |---------|---------|---------|---------| 
 
 (T) correction [au]:                   -0.003408212173
 CCSD(T) correlation energy [au]:       -0.077033278916
 
 CPU time [min]:  1630.362                   Wall time [min]:    22.819
 
 MO:    37
 Number of atoms in domain:      12
 Number of atomic orbitals:     756
 Number of atoms for local DF:   12
 Number of fitting functions:  2028 (100.00%)
 Warning: drop high-lying PAOs                    12
 Number of occupied orbitals:    37
 Number of virtual  orbitals:   680
 Number of Cholesky vectors:      8
 MP2 energy in ED [au]:          -0.093254172607
 Number of occupied LNOs:        37 (100.00%)
 Number of virtual  LNOs:       190  (27.94%)
 avg/min projected vLNO norm    1.0000E+00    9.9999E-01
 Number of Cholesky vectors:      6
 MP2 energy in LIS [au]:         -0.092243884473
 Correction for frozen LNO [au]: -0.001010288134     (1.083%)
 Number of NAFs:                739  (36.44%)
 CPU time [min]:  1684.351                   Wall time [min]:    23.652
 

 Direct DF-CCSD(T) calculation
 
 Convergence criterion:  1.0E-05
 
 Number of occupied/virtual/auxiliary orbitals:    37   190   739
   1696.39 MB is the minimal memory requirement for (T)
   1050.30 MB is the minimal memory requirement for CCSD
 
 MP2 correlation energy [au]:        -1.659474517224
 
 LMP2 domain correlation energy contribution [au]:       -0.092234012270
 
 CPU time [min]:  1684.946                   Wall time [min]:    23.667
 
 
 Starting CCSD iterations...
 
                     Residual norm       Correlation Energy
 Iteration  1        0.376918321867       -1.561413502959
 Iteration  2        0.229189929098       -1.632720829554
 Iteration  3        0.063795089397       -1.645341360185
 Iteration  4        0.022658334439       -1.647162431738
 Iteration  5        0.010658437657       -1.646882568182
 Iteration  6        0.005527734117       -1.646649524705
 Iteration  7        0.002850544307       -1.646709638586
 Iteration  8        0.001835261785       -1.646749025472
 Iteration  9        0.001384035865       -1.646753933865
 Iteration 10        0.000991087061       -1.646766913650
 Iteration 11        0.000634983778       -1.646769717677
 Iteration 12        0.000346970230       -1.646758196413
 Iteration 13        0.000174297349       -1.646751284547
 Iteration 14        0.000097505721       -1.646752915531
 
 CCSD iteration has converged in 14 steps.
     5982.12 MB memory was utilized by CCSD
 
 T1 diagnostic:      2.664E-02            D1 diagnostic:      1.219E-01
 
 Warning: large CCSD amplitude found
 Largest T1 amplitude:  7.65E-02
 Largest T2 amplitude: -2.54E-01
 
 CCSD correlation energy [au]:          -0.090748608228
 
 CPU time [min]:  1758.630                   Wall time [min]:    24.767
 
 Calculation of (T) correction...
 
 Laplace threshold, nquadmin:  1.00E-02   3
 Number of quadrature points:    3
 
     3660.75 MB memory is utilized for (T)

 0%       25%       50%       75%       100%
 |---------|---------|---------|---------| 
 
 (T) correction [au]:                   -0.011557416474
 CCSD(T) correlation energy [au]:       -0.102306024702
 
 CPU time [min]:  1869.080                   Wall time [min]:    26.354
 
 **********************************************************************
 Dimensions of the extended domains:    Minimum / Average / Maximum
 
 Number of atoms in domain:                  12      12.0        12
 Number of atomic orbitals:                 756     756.0       756
 Number of fitting functions:              1323    1921.3      2028
 Number of occupied localized MOs:           21      28.7        37
 Number of PAOs:                            448     647.1       680
 Number of occupied LNOs:                    17      19.9        37
 Number of virtual  LNOs:                    86     100.5       190
 Number of NAFs:                            285     343.6       739
 
 **********************************************************************
 Distant (and weak) pair contributions, corrections
 
 Sum of pair energies [au]:                    -0.000745900129    (0.027%)
 Sum of energy corrections [au]:               -0.020072498409    (0.726%)
 Pair energies + LNO corrections [au]:         -0.020818398538
 Sum of LMP2 contributions [au]:               -2.763366890035
 
 **********************************************************************
  Time of manipulations in the EDs:      max CPU/Wall [s]  all CPU/Wall [min]
 
 PD construction & multipole pair E     917.74    13.19    15.30     0.22
 Construct MO basis of the ED            26.75     0.36    13.35     0.18
 (mu,nu|P) evaluation & trf 2 (ai|P)    659.29     8.70   323.47     4.27
 Evaluate MP2 energy of the ED           43.37     0.57    17.77     0.23
 Transformations to the LNO basis        36.10     0.48    14.54     0.20
 Build W_PQ (Jai or Jpi part)             6.34     0.08     2.42     0.03
 Evaluate MP2 energy of the LIS           2.08     0.03     0.38     0.00
 (mu,nu|P) evaluation & trf 2 J(abQ)   2433.35    39.32   887.45    12.60
 Total of the above for all EDs        3207.29    49.55  1259.39    17.51
 
 **********************************************************************
 Maximum memory requirement [MB]:       
 
 PD construction & multipole pair E         73.3
 AO integral evaluation in the EDs       16211.9
 (mu,nu|P) evaluation & trf 2 (aI|P)     18243.3
 Evaluate MP2 energy in the EDs           1060.0
 Transformation to the LNO basis           500.4
 (mu,nu|P) to Jab transformation         16560.7
 Evaluate MP2 energy in the LIS            552.2
 Minimum requirement for LIS CCSD         1050.3
 Actually allocated  for LIS CCSD         5982.1
 Minimum requirement for LIS (T)          1696.4
 Actually allocated  for LIS (T)          3660.8
 
 ======================================================================
 ======================================================================
 
 
 
 ======================================================================
 ======================================================================
 
 Final local CC results:
 
 Minimum number of correlated electrons:        34       ( 45.9%)
 Maximum number of correlated electrons:        74       (100.0%)
 Average number of correlated electrons:        39.7     ( 53.7%)
 Minimum number of correlated orbitals:        103       ( 14.1%)
 Maximum number of correlated orbitals:        227       ( 31.1%)
 Average number of correlated orbitals:        120.4     ( 16.5%)
 
 CPU time for integral calculations [min]:                 21.511
 Wall time for integral calculations [min]:                10.091
 
 CPU time for SCF calculation [min]:                      196.481
 Wall time for SCF calculation [min]:                       2.607
 
 CPU time for orbital localization [min]:                   0.313
 Wall time for orbital localization [min]:                  0.013
 
 CPU time for integral transformations [min]:            1289.068
 Wall time for integral transformations [min]:             17.931
 
 Reference energy [au]:                                    -23270.820557858642
 
 LMP2 correlation energy [au]:                                 -2.763366890035
 Total LMP2 energy [au]:                                   -23273.583924748677
 
 Total MP2 correction for dropped NAFs [au]:                    0.000107560208
 Total MP2 correction [au]:                                    -0.020710838330
 
 CPU time for CCSD calculations [min]:                    264.563
 Total CPU time for CCSD [min]:                          1771.936
 Wall time for CCSD calculations [min]:                     3.888
 Total wall time for CCSD [min]:                           34.529
 
 CCSD correlation energy [au]:                                 -2.701781800524
 Total CCSD energy [au]:                                   -23273.522339659165
 CCSD correlation energy + 0.5 MP2 corrections [au]:           -2.712137219689
 Total LNO-CCSD energy with MP2 corrections [au]:          -23273.532695078331
 
 CPU time for (T) corrections [min]:                      315.452
 Total CPU time for CCSD(T) [min]:                       2087.388
 Wall time for (T) corrections [min]:                       4.535
 Total wall time for CCSD(T) [min]:                        39.065
 
 Total (T) correlation energy contribution [au]:               -0.127776972981
 Total (T) correlation energy+0.5 MP2 correction [au]:         -0.138132392147
 CCSD(T) correlation energy [au]:                              -2.829558773505
 Total CCSD(T) energy [au]:                                -23273.650116632147
 CCSD(T) correlation energy + MP2 corrections [au]:            -2.850269611835
 Total LNO-CCSD(T) energy with MP2 corrections [au]:       -23273.670827470476
 
 ======================================================================
 ======================================================================
 
 ************************ 2022-02-05 15:04:54 *************************
                      Normal termination of mrcc.
 **********************************************************************
