 vasp.6.2.0 18Jan21 (build Mar 03 2021 13:27:41) complex                        
  
 executed on             LinuxIFC date 2021.05.07  16:33:18
 running on   80 total cores
 distrk:  each k-point on   80 cores,    1 groups
 distr:  one band on NCORE=   1 cores,   80 groups


--------------------------------------------------------------------------------------------------------


 INCAR:
   SYSTEM = TiO2-rutile
   ISMEAR = 0
   SIGMA = 0.05
   EDIFF = 1E-6
   ALGO = Fast
   ISTART = 0
   IBRION = 2
   NSW = 200
   EDIFFG = -0.01
   ISIF = 3
   ENCUT = 700
   PREC = Accurate
   LASPH = .TRUE.
   LREAL = .FALSE.
   ISPIN = 2
   MAGMOM = 6*1.0
   NELM = 60
   NELMIN = 4
   LWAVE = .FALSE.
   LCHARG = .FALSE.
   LORBIT = 11

 POTCAR:    PAW Ti_sv 26Sep2005                   
 POTCAR:    PAW O 22Mar2012                       
 -----------------------------------------------------------------------------
|                                                                             |
|           W    W    AA    RRRRR   N    N  II  N    N   GGGG   !!!           |
|           W    W   A  A   R    R  NN   N  II  NN   N  G    G  !!!           |
|           W    W  A    A  R    R  N N  N  II  N N  N  G       !!!           |
|           W WW W  AAAAAA  RRRRR   N  N N  II  N  N N  G  GGG   !            |
|           WW  WW  A    A  R   R   N   NN  II  N   NN  G    G                |
|           W    W  A    A  R    R  N    N  II  N    N   GGGG   !!!           |
|                                                                             |
|     For optimal performance we recommend to set                             |
|       NCORE = 2 up to number-of-cores-per-socket                            |
|     NCORE specifies how many cores store one orbital (NPAR=cpu/NCORE).      |
|     This setting can greatly improve the performance of VASP for DFT.       |
|     The default, NCORE=1 might be grossly inefficient on modern             |
|     multi-core architectures or massively parallel machines. Do your        |
|     own testing! More info at https://www.vasp.at/wiki/index.php/NCORE      |
|     Unfortunately you need to use the default for GW and RPA                |
|     calculations (for HF NCORE is supported but not extensively tested      |
|     yet).                                                                   |
|                                                                             |
 -----------------------------------------------------------------------------

 POTCAR:    PAW Ti_sv 26Sep2005                   
   SHA256 =  078bba2ba76fa12a112e91ee4366291a6d5e3996f0e1133d3572cac314e14472 Ti_sv/POTCAR          
   COPYR  = (c) Copyright 26Sep2005 Georg Kresse                                                    
   COPYR  = This file is part of the software VASP. Any use, copying, and all other rights are regul
   COPYR  = If you do not have a valid VASP license, you may not use, copy or distribute this file. 
   VRHFIN =Ti: 3s3p4s3d                                                                             
   LEXCH  = CA                                                                                      
   EATOM  =  1588.8698 eV,  116.7786 Ry                                                             
                                                                                                    
   TITEL  = PAW Ti_sv 26Sep2005                                                                     
   LULTRA =        F    use ultrasoft PP ?                                                          
   IUNSCR =        1    unscreen: 0-lin 1-nonlin 2-no                                               
   RPACOR =    2.000    partial core radius                                                         
   POMASS =   47.880; ZVAL   =   12.000    mass and valenz                                          
   RCORE  =    2.300    outmost cutoff radius                                                       
   RWIGS  =    2.300; RWIGS  =    1.217    wigner-seitz radius (au A)                               
   ENMAX  =  274.719; ENMIN  =  206.039 eV                                                          
   ICORE  =        3    local potential                                                             
   LCOR   =        T    correct aug charges                                                         
   LPAW   =        T    paw PP                                                                      
   EAUG   =  482.848                                                                                
   RMAX   =    2.348    core radius for proj-oper                                                   
   RAUG   =    1.300    factor for augmentation sphere                                              
   RDEP   =    2.381    radius for radial grids                                                     
   RDEPT  =    1.930    core radius for aug-charge                                                  
                                                                                                    
   Atomic configuration                                                                             
    8 entries                                                                                       
     n  l   j            E        occ.                                                              
     1  0  0.50     -4841.5915   2.0000                                                             
     2  0  0.50      -530.7755   2.0000                                                             
     2  1  1.50      -439.8260   6.0000                                                             
     3  0  0.50       -58.8300   2.0000                                                             
     4  0  0.50        -3.8733   1.0000                                                             
     3  1  1.50       -35.5746   6.0000                                                             
     3  2  2.50        -2.0952   3.0000                                                             
     4  3  2.50        -1.3606   0.0000                                                             
   Description                                                                                      
     l       E           TYP  RCUT    TYP  RCUT                                                     
     0    -58.8300472     23  1.800                                                                 
     0     -3.8733026     23  2.300                                                                 
     1    -35.5746147     23  2.300                                                                 
     1     -1.3605826     23  2.300                                                                 
     2     -2.0951860     23  2.300                                                                 
     2     -0.1606077     23  2.300                                                                 
     3     -1.3605826     23  2.300                                                                 
  local pseudopotential read in
  partial core-charges read in
  partial kinetic energy density read in
  atomic valenz-charges read in
  non local Contribution for L=           0  read in
    real space projection operators read in
  non local Contribution for L=           0  read in
    real space projection operators read in
  non local Contribution for L=           1  read in
    real space projection operators read in
  non local Contribution for L=           1  read in
    real space projection operators read in
  non local Contribution for L=           2  read in
    real space projection operators read in
  non local Contribution for L=           2  read in
    real space projection operators read in
    PAW grid and wavefunctions read in
 
   number of l-projection  operators is LMAX  =           6
   number of lm-projection operators is LMMAX =          18
 
 POTCAR:    PAW O 22Mar2012                       
   SHA256 =  fb56c0ff35fa0205295a7064175e8d4dc8b8fd86664824e51d4c6af4372219f2 O/POTCAR              
   COPYR  = (c) Copyright 22Mar2012 Georg Kresse                                                    
   COPYR  = This file is part of the software VASP. Any use, copying, and all other rights are regul
   COPYR  = If you do not have a valid VASP license, you may not use, copy or distribute this file. 
   VRHFIN =O: s2p4                                                                                  
   LEXCH  = CA                                                                                      
   EATOM  =   431.4380 eV,   31.7098 Ry                                                             
                                                                                                    
   TITEL  = PAW O 22Mar2012                                                                         
   LULTRA =        F    use ultrasoft PP ?                                                          
   IUNSCR =        1    unscreen: 0-lin 1-nonlin 2-no                                               
   RPACOR =    1.200    partial core radius                                                         
   POMASS =   16.000; ZVAL   =    6.000    mass and valenz                                          
   RCORE  =    1.520    outmost cutoff radius                                                       
   RWIGS  =    1.550; RWIGS  =    0.820    wigner-seitz radius (au A)                               
   ENMAX  =  400.000; ENMIN  =  300.000 eV                                                          
   ICORE  =        2    local potential                                                             
   LCOR   =        T    correct aug charges                                                         
   LPAW   =        T    paw PP                                                                      
   EAUG   =  605.392                                                                                
   DEXC   =    0.000                                                                                
   RMAX   =    1.553    core radius for proj-oper                                                   
   RAUG   =    1.300    factor for augmentation sphere                                              
   RDEP   =    1.550    radius for radial grids                                                     
   RDEPT  =    1.329    core radius for aug-charge                                                  
                                                                                                    
   Atomic configuration                                                                             
    4 entries                                                                                       
     n  l   j            E        occ.                                                              
     1  0  0.50      -510.4605   2.0000                                                             
     2  0  0.50       -23.7367   2.0000                                                             
     2  1  0.50        -9.1995   4.0000                                                             
     3  2  1.50        -9.5241   0.0000                                                             
   Description                                                                                      
     l       E           TYP  RCUT    TYP  RCUT                                                     
     0    -23.7366993     23  1.200                                                                 
     0     -9.5240782     23  1.200                                                                 
     1     -9.1994509     23  1.520                                                                 
     1      8.1634956     23  1.520                                                                 
     2     -9.5240782      7  1.500                                                                 
  local pseudopotential read in
  partial core-charges read in
  partial kinetic energy density read in
  kinetic energy density of atom read in
  atomic valenz-charges read in
  non local Contribution for L=           0  read in
    real space projection operators read in
  non local Contribution for L=           0  read in
    real space projection operators read in
  non local Contribution for L=           1  read in
    real space projection operators read in
  non local Contribution for L=           1  read in
    real space projection operators read in
    PAW grid and wavefunctions read in
 
   number of l-projection  operators is LMAX  =           4
   number of lm-projection operators is LMMAX =           8
 
  PAW Ti_sv 26Sep2005                   :
 energy of atom  1       EATOM=-1588.8698
 kinetic energy error for atom=    0.0013 (will be added to EATOM!!)
  PAW O 22Mar2012                       :
 energy of atom  2       EATOM= -431.4380
 kinetic energy error for atom=    0.0089 (will be added to EATOM!!)
 
 
 POSCAR: Ti2 O4
  positions in direct lattice
  velocities in cartesian coordinates
 exchange correlation table for  LEXCH =        2
   RHO(1)=    0.500       N(1)  =     2000
   RHO(2)=  100.500       N(2)  =     4000
 


--------------------------------------------------------------------------------------------------------


 ion  position               nearest neighbor table
   1  0.500  0.500  0.500-   5 1.96   6 1.96   5 1.96   6 1.96   3 2.01   4 2.01
   2  0.000  0.000  0.000-   3 1.96   4 1.96   3 1.96   4 1.96   5 2.01   6 2.01
   3  0.195  0.805  0.500-   2 1.96   2 1.96   1 2.01
   4  0.805  0.195  0.500-   2 1.96   2 1.96   1 2.01
   5  0.305  0.305  0.000-   1 1.96   1 1.96   2 2.01
   6  0.695  0.695  0.000-   1 1.96   1 1.96   2 2.01
 
  LATTYP: Found a simple tetragonal cell.
 ALAT       =     4.6493539123
 C/A-ratio  =     0.6383500501
  
  Lattice vectors:
  
 A1 = (   4.6493539123,   0.0000000000,   0.0000000000)
 A2 = (   0.0000000000,   4.6493539123,   0.0000000000)
 A3 = (   0.0000000000,   0.0000000000,   2.9679153030)


Analysis of symmetry for initial positions (statically):
=====================================================================
 Subroutine PRICEL returns:
 Original cell was already a primitive cell.
 

 Routine SETGRP: Setting up the symmetry group for a 
 simple tetragonal supercell.


 Subroutine GETGRP returns: Found 16 space group operations
 (whereof  8 operations were pure point group operations)
 out of a pool of 16 trial point group operations.


The static configuration has the point symmetry D_2h.
 The point group associated with its full space group is D_4h.


Analysis of symmetry for dynamics (positions and initial velocities):
=====================================================================
 Subroutine PRICEL returns:
 Original cell was already a primitive cell.
 

 Routine SETGRP: Setting up the symmetry group for a 
 simple tetragonal supercell.


 Subroutine GETGRP returns: Found 16 space group operations
 (whereof  8 operations were pure point group operations)
 out of a pool of 16 trial point group operations.


The dynamic configuration has the point symmetry D_2h.
 The point group associated with its full space group is D_4h.


Analysis of structural, dynamic, and magnetic symmetry:
=====================================================================
 Subroutine PRICEL returns:
 Original cell was already a primitive cell.
 

 Routine SETGRP: Setting up the symmetry group for a 
 simple tetragonal supercell.


 Subroutine GETGRP returns: Found 16 space group operations
 (whereof  8 operations were pure point group operations)
 out of a pool of 16 trial point group operations.


The overall configuration has the point symmetry D_2h.
 The point group associated with its full space group is D_4h.


 Subroutine INISYM returns: Found 16 space group operations
 (whereof  8 operations are pure point group operations),
 and found     1 'primitive' translations


----------------------------------------------------------------------------------------

                                     Primitive cell                                     

  volume of cell :      64.1559

  direct lattice vectors                    reciprocal lattice vectors
     4.649353912  0.000000000  0.000000000     0.215083648  0.000000000  0.000000000
     0.000000000  4.649353912  0.000000000     0.000000000  0.215083648  0.000000000
     0.000000000  0.000000000  2.967915303     0.000000000  0.000000000  0.336936839

  length of vectors
     4.649353912  4.649353912  2.967915303     0.215083648  0.215083648  0.336936839

  position of ions in fractional coordinates (direct lattice)
     0.500000000  0.500000000  0.500000000
     0.000000000  0.000000000  0.000000000
     0.195061748  0.804938252  0.500000000
     0.804938252  0.195061748  0.500000000
     0.304938252  0.304938252  0.000000000
     0.695061748  0.695061748  0.000000000

  ion indices of the primitive-cell ions
   primitive index   ion index
                 1           1
                 2           2
                 3           3
                 4           4
                 5           5
                 6           6

----------------------------------------------------------------------------------------

 
 
 KPOINTS: pymatgen v2020.8.13 with grid density = 

Automatic generation of k-mesh.
 Grid dimensions read from file:
 generate k-points for:    7    7   11

 Generating k-lattice:

  Cartesian coordinates                     Fractional coordinates (reciprocal lattice)
     0.030726235  0.000000000  0.000000000     0.142857143  0.000000000  0.000000000
     0.000000000  0.030726235  0.000000000     0.000000000  0.142857143  0.000000000
     0.000000000  0.000000000  0.030630622     0.000000000  0.000000000  0.090909091

  Length of vectors
     0.030726235  0.030726235  0.030630622

  Shift w.r.t. Gamma in fractional coordinates (k-lattice)
     0.000000000  0.000000000  0.000000000

 
 Subroutine IBZKPT returns following result:
 ===========================================
 
 Found     60 irreducible k-points:
 
 Following reciprocal coordinates:
            Coordinates               Weight
  0.000000  0.000000  0.000000      1.000000
  0.142857  0.000000  0.000000      4.000000
  0.285714  0.000000  0.000000      4.000000
  0.428571  0.000000  0.000000      4.000000
  0.142857  0.142857  0.000000      4.000000
  0.285714  0.142857  0.000000      8.000000
  0.428571  0.142857  0.000000      8.000000
  0.285714  0.285714  0.000000      4.000000
  0.428571  0.285714  0.000000      8.000000
  0.428571  0.428571  0.000000      4.000000
  0.000000  0.000000  0.090909      2.000000
  0.142857  0.000000  0.090909      8.000000
  0.285714  0.000000  0.090909      8.000000
  0.428571  0.000000  0.090909      8.000000
  0.142857  0.142857  0.090909      8.000000
  0.285714  0.142857  0.090909     16.000000
  0.428571  0.142857  0.090909     16.000000
  0.285714  0.285714  0.090909      8.000000
  0.428571  0.285714  0.090909     16.000000
  0.428571  0.428571  0.090909      8.000000
  0.000000  0.000000  0.181818      2.000000
  0.142857  0.000000  0.181818      8.000000
  0.285714  0.000000  0.181818      8.000000
  0.428571  0.000000  0.181818      8.000000
  0.142857  0.142857  0.181818      8.000000
  0.285714  0.142857  0.181818     16.000000
  0.428571  0.142857  0.181818     16.000000
  0.285714  0.285714  0.181818      8.000000
  0.428571  0.285714  0.181818     16.000000
  0.428571  0.428571  0.181818      8.000000
  0.000000  0.000000  0.272727      2.000000
  0.142857  0.000000  0.272727      8.000000
  0.285714  0.000000  0.272727      8.000000
  0.428571  0.000000  0.272727      8.000000
  0.142857  0.142857  0.272727      8.000000
  0.285714  0.142857  0.272727     16.000000
  0.428571  0.142857  0.272727     16.000000
  0.285714  0.285714  0.272727      8.000000
  0.428571  0.285714  0.272727     16.000000
  0.428571  0.428571  0.272727      8.000000
  0.000000  0.000000  0.363636      2.000000
  0.142857  0.000000  0.363636      8.000000
  0.285714  0.000000  0.363636      8.000000
  0.428571  0.000000  0.363636      8.000000
  0.142857  0.142857  0.363636      8.000000
  0.285714  0.142857  0.363636     16.000000
  0.428571  0.142857  0.363636     16.000000
  0.285714  0.285714  0.363636      8.000000
  0.428571  0.285714  0.363636     16.000000
  0.428571  0.428571  0.363636      8.000000
  0.000000  0.000000  0.454545      2.000000
  0.142857  0.000000  0.454545      8.000000
  0.285714  0.000000  0.454545      8.000000
  0.428571  0.000000  0.454545      8.000000
  0.142857  0.142857  0.454545      8.000000
  0.285714  0.142857  0.454545     16.000000
  0.428571  0.142857  0.454545     16.000000
  0.285714  0.285714  0.454545      8.000000
  0.428571  0.285714  0.454545     16.000000
  0.428571  0.428571  0.454545      8.000000
 
 Following cartesian coordinates:
            Coordinates               Weight
  0.000000  0.000000  0.000000      1.000000
  0.030726  0.000000  0.000000      4.000000
  0.061452  0.000000  0.000000      4.000000
  0.092179  0.000000  0.000000      4.000000
  0.030726  0.030726  0.000000      4.000000
  0.061452  0.030726  0.000000      8.000000
  0.092179  0.030726  0.000000      8.000000
  0.061452  0.061452  0.000000      4.000000
  0.092179  0.061452  0.000000      8.000000
  0.092179  0.092179  0.000000      4.000000
  0.000000  0.000000  0.030631      2.000000
  0.030726  0.000000  0.030631      8.000000
  0.061452  0.000000  0.030631      8.000000
  0.092179  0.000000  0.030631      8.000000
  0.030726  0.030726  0.030631      8.000000
  0.061452  0.030726  0.030631     16.000000
  0.092179  0.030726  0.030631     16.000000
  0.061452  0.061452  0.030631      8.000000
  0.092179  0.061452  0.030631     16.000000
  0.092179  0.092179  0.030631      8.000000
  0.000000  0.000000  0.061261      2.000000
  0.030726  0.000000  0.061261      8.000000
  0.061452  0.000000  0.061261      8.000000
  0.092179  0.000000  0.061261      8.000000
  0.030726  0.030726  0.061261      8.000000
  0.061452  0.030726  0.061261     16.000000
  0.092179  0.030726  0.061261     16.000000
  0.061452  0.061452  0.061261      8.000000
  0.092179  0.061452  0.061261     16.000000
  0.092179  0.092179  0.061261      8.000000
  0.000000  0.000000  0.091892      2.000000
  0.030726  0.000000  0.091892      8.000000
  0.061452  0.000000  0.091892      8.000000
  0.092179  0.000000  0.091892      8.000000
  0.030726  0.030726  0.091892      8.000000
  0.061452  0.030726  0.091892     16.000000
  0.092179  0.030726  0.091892     16.000000
  0.061452  0.061452  0.091892      8.000000
  0.092179  0.061452  0.091892     16.000000
  0.092179  0.092179  0.091892      8.000000
  0.000000  0.000000  0.122522      2.000000
  0.030726  0.000000  0.122522      8.000000
  0.061452  0.000000  0.122522      8.000000
  0.092179  0.000000  0.122522      8.000000
  0.030726  0.030726  0.122522      8.000000
  0.061452  0.030726  0.122522     16.000000
  0.092179  0.030726  0.122522     16.000000
  0.061452  0.061452  0.122522      8.000000
  0.092179  0.061452  0.122522     16.000000
  0.092179  0.092179  0.122522      8.000000
  0.000000  0.000000  0.153153      2.000000
  0.030726  0.000000  0.153153      8.000000
  0.061452  0.000000  0.153153      8.000000
  0.092179  0.000000  0.153153      8.000000
  0.030726  0.030726  0.153153      8.000000
  0.061452  0.030726  0.153153     16.000000
  0.092179  0.030726  0.153153     16.000000
  0.061452  0.061452  0.153153      8.000000
  0.092179  0.061452  0.153153     16.000000
  0.092179  0.092179  0.153153      8.000000
 


--------------------------------------------------------------------------------------------------------




 Dimension of arrays:
   k-points           NKPTS =     60   k-points in BZ     NKDIM =     60   number of bands    NBANDS=     80
   number of dos      NEDOS =    301   number of ions     NIONS =      6
   non local maximal  LDIM  =      6   non local SUM 2l+1 LMDIM =     18
   total plane-waves  NPLWV =  44800
   max r-space proj   IRMAX =      1   max aug-charges    IRDMAX=  27307
   dimension x,y,z NGX =    40 NGY =   40 NGZ =   28
   dimension x,y,z NGXF=    80 NGYF=   80 NGZF=   56
   support grid    NGXF=    80 NGYF=   80 NGZF=   56
   ions per type =               2   4
   NGX,Y,Z   is equivalent  to a cutoff of  14.30, 14.30, 15.68 a.u.
   NGXF,Y,Z  is equivalent  to a cutoff of  28.61, 28.61, 31.37 a.u.

 SYSTEM =  TiO2-rutile                             
 POSCAR =  Ti2 O4                                  

 Startparameter for this run:
   NWRITE =      2    write-flag & timer
   PREC   = accura    normal or accurate (medium, high low for compatibility)
   ISTART =      0    job   : 0-new  1-cont  2-samecut
   ICHARG =      2    charge: 1-file 2-atom 10-const
   ISPIN  =      2    spin polarized calculation?
   LNONCOLLINEAR =      F non collinear calculations
   LSORBIT =      F    spin-orbit coupling
   INIWAV =      1    electr: 0-lowe 1-rand  2-diag
   LASPH  =      T    aspherical Exc in radial PAW
   METAGGA=      F    non-selfconsistent MetaGGA calc.

 Electronic Relaxation 1
   ENCUT  =  700.0 eV  51.45 Ry    7.17 a.u.  10.03 10.03  6.40*2*pi/ulx,y,z
   ENINI  =  700.0     initial cutoff
   ENAUG  =  605.4 eV  augmentation charge cutoff
   NELM   =     60;   NELMIN=  4; NELMDL= -5     # of ELM steps 
   EDIFF  = 0.1E-05   stopping-criterion for ELM
   LREAL  =      F    real-space projection
   NLSPLINE    = F    spline interpolate recip. space projectors
   LCOMPAT=      F    compatible to vasp.4.4
   GGA_COMPAT  = T    GGA compatible to vasp.4.4-vasp.4.6
   LMAXPAW     = -100 max onsite density
   LMAXMIX     =    2 max onsite mixed and CHGCAR
   VOSKOWN=      0    Vosko Wilk Nusair interpolation
   ROPT   =    0.00000   0.00000
 Ionic relaxation
   EDIFFG = -.1E-01   stopping-criterion for IOM
   NSW    =    200    number of steps for IOM
   NBLOCK =      1;   KBLOCK =    200    inner block; outer block 
   IBRION =      2    ionic relax: 0-MD 1-quasi-New 2-CG
   NFREE  =      1    steps in history (QN), initial steepest desc. (CG)
   ISIF   =      3    stress and relaxation
   IWAVPR =     11    prediction:  0-non 1-charg 2-wave 3-comb
   ISYM   =      2    0-nonsym 1-usesym 2-fastsym
   LCORR  =      T    Harris-Foulkes like correction to forces

   POTIM  = 0.5000    time-step for ionic-motion
   TEIN   =    0.0    initial temperature
   TEBEG  =    0.0;   TEEND  =   0.0 temperature during run
   SMASS  =  -3.00    Nose mass-parameter (am)
   estimated Nose-frequenzy (Omega)   =  0.10E-29 period in steps = 0.13E+47 mass=  -0.494E-27a.u.
   SCALEE = 1.0000    scale energy and forces
   NPACO  =    256;   APACO  = 16.0  distance and # of slots for P.C.
   PSTRESS=    0.0 pullay stress

  Mass of Ions in am
   POMASS =  47.88 16.00
  Ionic Valenz
   ZVAL   =  12.00  6.00
  Atomic Wigner-Seitz radii
   RWIGS  =  -1.00 -1.00
  virtual crystal weights 
   VCA    =   1.00  1.00
   NELECT =      48.0000    total number of electrons
   NUPDOWN=      -1.0000    fix difference up-down

 DOS related values:
   EMIN   =  10.00;   EMAX   =-10.00  energy-range for DOS
   EFERMI =   0.00
   ISMEAR =     0;   SIGMA  =   0.05  broadening in eV -4-tet -1-fermi 0-gaus

 Electronic relaxation 2 (details)
   IALGO  =     68    algorithm
   LDIAG  =      T    sub-space diagonalisation (order eigenvalues)
   LSUBROT=      F    optimize rotation matrix (better conditioning)
   TURBO    =      0    0=normal 1=particle mesh
   IRESTART =      0    0=no restart 2=restart with 2 vectors
   NREBOOT  =      0    no. of reboots
   NMIN     =      0    reboot dimension
   EREF     =   0.00    reference energy to select bands
   IMIX   =      4    mixing-type and parameters
     AMIX     =   0.40;   BMIX     =  1.00
     AMIX_MAG =   1.60;   BMIX_MAG =  1.00
     AMIN     =   0.10
     WC   =   100.;   INIMIX=   1;  MIXPRE=   1;  MAXMIX= -45

 Intra band minimization:
   WEIMIN = 0.0010     energy-eigenvalue tresh-hold
   EBREAK =  0.31E-08  absolut break condition
   DEPER  =   0.30     relativ break condition  

   TIME   =   0.40     timestep for ELM

  volume/ion in A,a.u.               =      10.69        72.16
  Fermi-wavevector in a.u.,A,eV,Ry     =   1.486197  2.808505 30.052291  2.208781
  Thomas-Fermi vector in A             =   2.599513
 
 Write flags
   LWAVE        =      F    write WAVECAR
   LDOWNSAMPLE  =      F    k-point downsampling of WAVECAR
   LCHARG       =      F    write CHGCAR
   LVTOT        =      F    write LOCPOT, total local potential
   LVHAR        =      F    write LOCPOT, Hartree potential only
   LELF         =      F    write electronic localiz. function (ELF)
   LORBIT       =     11    0 simple, 1 ext, 2 COOP (PROOUT), +10 PAW based schemes


 Dipole corrections
   LMONO  =      F    monopole corrections only (constant potential shift)
   LDIPOL =      F    correct potential (dipole corrections)
   IDIPOL =      0    1-x, 2-y, 3-z, 4-all directions 
   EPSILON=  1.0000000 bulk dielectric constant

 Exchange correlation treatment:
   GGA     =    --    GGA type
   LEXCH   =     2    internal setting for exchange type
   VOSKOWN=      0    Vosko Wilk Nusair interpolation
   LHFCALC =     F    Hartree Fock is set to
   LHFONE  =     F    Hartree Fock one center treatment
   AEXX    =    0.0000 exact exchange contribution

 Linear response parameters
   LEPSILON=     F    determine dielectric tensor
   LRPA    =     F    only Hartree local field effects (RPA)
   LNABLA  =     F    use nabla operator in PAW spheres
   LVEL    =     F    velocity operator in full k-point grid
   LINTERFAST=   F  fast interpolation
   KINTER  =     0    interpolate to denser k-point grid
   CSHIFT  =0.1000    complex shift for real part using Kramers Kronig
   OMEGAMAX=  -1.0    maximum frequency
   DEG_THRESHOLD= 0.2000000E-02 threshold for treating states as degnerate
   RTIME   =   -0.100 relaxation time in fs
  (WPLASMAI=    0.000 imaginary part of plasma frequency in eV, 0.658/RTIME)
   DFIELD  = 0.0000000 0.0000000 0.0000000 field for delta impulse in time
 
 Orbital magnetization related:
   ORBITALMAG=     F  switch on orbital magnetization
   LCHIMAG   =     F  perturbation theory with respect to B field
   DQ        =  0.001000  dq finite difference perturbation B field
   LLRAUG    =     F  two centre corrections for induced B field



--------------------------------------------------------------------------------------------------------


 conjugate gradient relaxation of ions
 charge density and potential will be updated during run
 spin polarized calculation
 RMM-DIIS sequential band-by-band and
  variant of blocked Davidson during initial phase
 perform sub-space diagonalisation
    before iterative eigenvector-optimisation
 modified Broyden-mixing scheme, WC =      100.0
 initial mixing is a Kerker type mixing with AMIX =  0.4000 and BMIX =      1.0000
 Hartree-type preconditioning will be used
 using additional bands           56
 reciprocal scheme for non local part
 use partial core corrections
 calculate Harris-corrections to forces 
   (improved forces if not selfconsistent)
 use of overlap-Matrix (Vanderbilt PP)
 Gauss-broadening in eV      SIGMA  =   0.05


--------------------------------------------------------------------------------------------------------


  energy-cutoff  :      700.00
  volume of cell :       64.16
      direct lattice vectors                 reciprocal lattice vectors
     4.649353912  0.000000000  0.000000000     0.215083648  0.000000000  0.000000000
     0.000000000  4.649353912  0.000000000     0.000000000  0.215083648  0.000000000
     0.000000000  0.000000000  2.967915303     0.000000000  0.000000000  0.336936839

  length of vectors
     4.649353912  4.649353912  2.967915303     0.215083648  0.215083648  0.336936839


 
 k-points in units of 2pi/SCALE and weight: pymatgen v2020.8.13 with grid density = 
   0.00000000  0.00000000  0.00000000       0.002
   0.03072624  0.00000000  0.00000000       0.007
   0.06145247  0.00000000  0.00000000       0.007
   0.09217871  0.00000000  0.00000000       0.007
   0.03072624  0.03072624  0.00000000       0.007
   0.06145247  0.03072624  0.00000000       0.015
   0.09217871  0.03072624  0.00000000       0.015
   0.06145247  0.06145247  0.00000000       0.007
   0.09217871  0.06145247  0.00000000       0.015
   0.09217871  0.09217871  0.00000000       0.007
   0.00000000  0.00000000  0.03063062       0.004
   0.03072624  0.00000000  0.03063062       0.015
   0.06145247  0.00000000  0.03063062       0.015
   0.09217871  0.00000000  0.03063062       0.015
   0.03072624  0.03072624  0.03063062       0.015
   0.06145247  0.03072624  0.03063062       0.030
   0.09217871  0.03072624  0.03063062       0.030
   0.06145247  0.06145247  0.03063062       0.015
   0.09217871  0.06145247  0.03063062       0.030
   0.09217871  0.09217871  0.03063062       0.015
   0.00000000  0.00000000  0.06126124       0.004
   0.03072624  0.00000000  0.06126124       0.015
   0.06145247  0.00000000  0.06126124       0.015
   0.09217871  0.00000000  0.06126124       0.015
   0.03072624  0.03072624  0.06126124       0.015
   0.06145247  0.03072624  0.06126124       0.030
   0.09217871  0.03072624  0.06126124       0.030
   0.06145247  0.06145247  0.06126124       0.015
   0.09217871  0.06145247  0.06126124       0.030
   0.09217871  0.09217871  0.06126124       0.015
   0.00000000  0.00000000  0.09189187       0.004
   0.03072624  0.00000000  0.09189187       0.015
   0.06145247  0.00000000  0.09189187       0.015
   0.09217871  0.00000000  0.09189187       0.015
   0.03072624  0.03072624  0.09189187       0.015
   0.06145247  0.03072624  0.09189187       0.030
   0.09217871  0.03072624  0.09189187       0.030
   0.06145247  0.06145247  0.09189187       0.015
   0.09217871  0.06145247  0.09189187       0.030
   0.09217871  0.09217871  0.09189187       0.015
   0.00000000  0.00000000  0.12252249       0.004
   0.03072624  0.00000000  0.12252249       0.015
   0.06145247  0.00000000  0.12252249       0.015
   0.09217871  0.00000000  0.12252249       0.015
   0.03072624  0.03072624  0.12252249       0.015
   0.06145247  0.03072624  0.12252249       0.030
   0.09217871  0.03072624  0.12252249       0.030
   0.06145247  0.06145247  0.12252249       0.015
   0.09217871  0.06145247  0.12252249       0.030
   0.09217871  0.09217871  0.12252249       0.015
   0.00000000  0.00000000  0.15315311       0.004
   0.03072624  0.00000000  0.15315311       0.015
   0.06145247  0.00000000  0.15315311       0.015
   0.09217871  0.00000000  0.15315311       0.015
   0.03072624  0.03072624  0.15315311       0.015
   0.06145247  0.03072624  0.15315311       0.030
   0.09217871  0.03072624  0.15315311       0.030
   0.06145247  0.06145247  0.15315311       0.015
   0.09217871  0.06145247  0.15315311       0.030
   0.09217871  0.09217871  0.15315311       0.015
 
 k-points in reciprocal lattice and weights: pymatgen v2020.8.13 with grid density = 
   0.00000000  0.00000000  0.00000000       0.002
   0.14285714  0.00000000  0.00000000       0.007
   0.28571429  0.00000000  0.00000000       0.007
   0.42857143  0.00000000  0.00000000       0.007
   0.14285714  0.14285714  0.00000000       0.007
   0.28571429  0.14285714  0.00000000       0.015
   0.42857143  0.14285714  0.00000000       0.015
   0.28571429  0.28571429  0.00000000       0.007
   0.42857143  0.28571429  0.00000000       0.015
   0.42857143  0.42857143  0.00000000       0.007
   0.00000000  0.00000000  0.09090909       0.004
   0.14285714  0.00000000  0.09090909       0.015
   0.28571429  0.00000000  0.09090909       0.015
   0.42857143  0.00000000  0.09090909       0.015
   0.14285714  0.14285714  0.09090909       0.015
   0.28571429  0.14285714  0.09090909       0.030
   0.42857143  0.14285714  0.09090909       0.030
   0.28571429  0.28571429  0.09090909       0.015
   0.42857143  0.28571429  0.09090909       0.030
   0.42857143  0.42857143  0.09090909       0.015
   0.00000000  0.00000000  0.18181818       0.004
   0.14285714  0.00000000  0.18181818       0.015
   0.28571429  0.00000000  0.18181818       0.015
   0.42857143  0.00000000  0.18181818       0.015
   0.14285714  0.14285714  0.18181818       0.015
   0.28571429  0.14285714  0.18181818       0.030
   0.42857143  0.14285714  0.18181818       0.030
   0.28571429  0.28571429  0.18181818       0.015
   0.42857143  0.28571429  0.18181818       0.030
   0.42857143  0.42857143  0.18181818       0.015
   0.00000000  0.00000000  0.27272727       0.004
   0.14285714  0.00000000  0.27272727       0.015
   0.28571429  0.00000000  0.27272727       0.015
   0.42857143  0.00000000  0.27272727       0.015
   0.14285714  0.14285714  0.27272727       0.015
   0.28571429  0.14285714  0.27272727       0.030
   0.42857143  0.14285714  0.27272727       0.030
   0.28571429  0.28571429  0.27272727       0.015
   0.42857143  0.28571429  0.27272727       0.030
   0.42857143  0.42857143  0.27272727       0.015
   0.00000000  0.00000000  0.36363636       0.004
   0.14285714  0.00000000  0.36363636       0.015
   0.28571429  0.00000000  0.36363636       0.015
   0.42857143  0.00000000  0.36363636       0.015
   0.14285714  0.14285714  0.36363636       0.015
   0.28571429  0.14285714  0.36363636       0.030
   0.42857143  0.14285714  0.36363636       0.030
   0.28571429  0.28571429  0.36363636       0.015
   0.42857143  0.28571429  0.36363636       0.030
   0.42857143  0.42857143  0.36363636       0.015
   0.00000000  0.00000000  0.45454545       0.004
   0.14285714  0.00000000  0.45454545       0.015
   0.28571429  0.00000000  0.45454545       0.015
   0.42857143  0.00000000  0.45454545       0.015
   0.14285714  0.14285714  0.45454545       0.015
   0.28571429  0.14285714  0.45454545       0.030
   0.42857143  0.14285714  0.45454545       0.030
   0.28571429  0.28571429  0.45454545       0.015
   0.42857143  0.28571429  0.45454545       0.030
   0.42857143  0.42857143  0.45454545       0.015
 
 position of ions in fractional coordinates (direct lattice) 
   0.50000000  0.50000000  0.50000000
   0.00000000  0.00000000  0.00000000
   0.19506175  0.80493825  0.50000000
   0.80493825  0.19506175  0.50000000
   0.30493825  0.30493825  0.00000000
   0.69506175  0.69506175  0.00000000
 
 position of ions in cartesian coordinates  (Angst):
   2.32467696  2.32467696  1.48395765
   0.00000000  0.00000000  0.00000000
   0.90691110  3.74244281  1.48395765
   3.74244281  0.90691110  1.48395765
   1.41776585  1.41776585  0.00000000
   3.23158806  3.23158806  0.00000000
 


--------------------------------------------------------------------------------------------------------


 k-point   1 :   0.0000 0.0000 0.0000  plane waves:    2697
 k-point   2 :   0.1429 0.0000 0.0000  plane waves:    2682
 k-point   3 :   0.2857 0.0000 0.0000  plane waves:    2710
 k-point   4 :   0.4286 0.0000 0.0000  plane waves:    2706
 k-point   5 :   0.1429 0.1429 0.0000  plane waves:    2702
 k-point   6 :   0.2857 0.1429 0.0000  plane waves:    2697
 k-point   7 :   0.4286 0.1429 0.0000  plane waves:    2709
 k-point   8 :   0.2857 0.2857 0.0000  plane waves:    2704
 k-point   9 :   0.4286 0.2857 0.0000  plane waves:    2712
 k-point  10 :   0.4286 0.4286 0.0000  plane waves:    2708
 k-point  11 :   0.0000 0.0000 0.0909  plane waves:    2685
 k-point  12 :   0.1429 0.0000 0.0909  plane waves:    2693
 k-point  13 :   0.2857 0.0000 0.0909  plane waves:    2697
 k-point  14 :   0.4286 0.0000 0.0909  plane waves:    2692
 k-point  15 :   0.1429 0.1429 0.0909  plane waves:    2698
 k-point  16 :   0.2857 0.1429 0.0909  plane waves:    2700
 k-point  17 :   0.4286 0.1429 0.0909  plane waves:    2708
 k-point  18 :   0.2857 0.2857 0.0909  plane waves:    2714
 k-point  19 :   0.4286 0.2857 0.0909  plane waves:    2716
 k-point  20 :   0.4286 0.4286 0.0909  plane waves:    2720
 k-point  21 :   0.0000 0.0000 0.1818  plane waves:    2685
 k-point  22 :   0.1429 0.0000 0.1818  plane waves:    2693
 k-point  23 :   0.2857 0.0000 0.1818  plane waves:    2702
 k-point  24 :   0.4286 0.0000 0.1818  plane waves:    2691
 k-point  25 :   0.1429 0.1429 0.1818  plane waves:    2691
 k-point  26 :   0.2857 0.1429 0.1818  plane waves:    2701
 k-point  27 :   0.4286 0.1429 0.1818  plane waves:    2708
 k-point  28 :   0.2857 0.2857 0.1818  plane waves:    2701
 k-point  29 :   0.4286 0.2857 0.1818  plane waves:    2712
 k-point  30 :   0.4286 0.4286 0.1818  plane waves:    2720
 k-point  31 :   0.0000 0.0000 0.2727  plane waves:    2705
 k-point  32 :   0.1429 0.0000 0.2727  plane waves:    2695
 k-point  33 :   0.2857 0.0000 0.2727  plane waves:    2688
 k-point  34 :   0.4286 0.0000 0.2727  plane waves:    2700
 k-point  35 :   0.1429 0.1429 0.2727  plane waves:    2688
 k-point  36 :   0.2857 0.1429 0.2727  plane waves:    2695
 k-point  37 :   0.4286 0.1429 0.2727  plane waves:    2697
 k-point  38 :   0.2857 0.2857 0.2727  plane waves:    2701
 k-point  39 :   0.4286 0.2857 0.2727  plane waves:    2704
 k-point  40 :   0.4286 0.4286 0.2727  plane waves:    2704
 k-point  41 :   0.0000 0.0000 0.3636  plane waves:    2685
 k-point  42 :   0.1429 0.0000 0.3636  plane waves:    2692
 k-point  43 :   0.2857 0.0000 0.3636  plane waves:    2683
 k-point  44 :   0.4286 0.0000 0.3636  plane waves:    2696
 k-point  45 :   0.1429 0.1429 0.3636  plane waves:    2687
 k-point  46 :   0.2857 0.1429 0.3636  plane waves:    2688
 k-point  47 :   0.4286 0.1429 0.3636  plane waves:    2701
 k-point  48 :   0.2857 0.2857 0.3636  plane waves:    2701
 k-point  49 :   0.4286 0.2857 0.3636  plane waves:    2694
 k-point  50 :   0.4286 0.4286 0.3636  plane waves:    2683
 k-point  51 :   0.0000 0.0000 0.4545  plane waves:    2668
 k-point  52 :   0.1429 0.0000 0.4545  plane waves:    2684
 k-point  53 :   0.2857 0.0000 0.4545  plane waves:    2696
 k-point  54 :   0.4286 0.0000 0.4545  plane waves:    2691
 k-point  55 :   0.1429 0.1429 0.4545  plane waves:    2686
 k-point  56 :   0.2857 0.1429 0.4545  plane waves:    2691
 k-point  57 :   0.4286 0.1429 0.4545  plane waves:    2696
 k-point  58 :   0.2857 0.2857 0.4545  plane waves:    2684
 k-point  59 :   0.4286 0.2857 0.4545  plane waves:    2690
 k-point  60 :   0.4286 0.4286 0.4545  plane waves:    2683

 maximum and minimum number of plane-waves per node :      2720     2668

 maximum number of plane-waves:      2720
 maximum index in each direction: 
   IXMAX=   10   IYMAX=   10   IZMAX=    6
   IXMIN=  -10   IYMIN=  -10   IZMIN=   -6


 serial   3D FFT for wavefunctions
 parallel 3D FFT for charge:
    minimum data exchange during FFTs selected (reduces bandwidth)


 total amount of memory used by VASP MPI-rank0    87198. kBytes
=======================================================================

   base      :      30000. kBytes
   nonl-proj :      47262. kBytes
   fftplans  :        371. kBytes
   grid      :       4003. kBytes
   one-center:        186. kBytes
   wavefun   :       5376. kBytes
 
     INWAV:  cpu time    0.0000: real time    0.0000
 Broyden mixing: mesh for mixing (old mesh)
   NGX = 21   NGY = 21   NGZ = 13
  (NGX  = 80   NGY  = 80   NGZ  = 56)
  gives a total of   5733 points

 initial charge density was supplied:
 charge density of overlapping atoms calculated
 number of electron      48.0000000 magnetization       6.0000000
 keeping initial charge density in first step


--------------------------------------------------------------------------------------------------------


 Maximum index for augmentation-charges         1101 (set IRDMAX)


--------------------------------------------------------------------------------------------------------


 First call to EWALD:  gamma=   0.443
 Maximum number of real-space cells 2x 2x 4
 Maximum number of reciprocal cells 3x 3x 2

    FEWALD:  cpu time    0.0015: real time    0.0018


--------------------------------------- Iteration      1(   1)  ---------------------------------------


    POTLOK:  cpu time    0.0070: real time    0.0340
    SETDIJ:  cpu time    0.2818: real time    0.2826
     EDDAV:  cpu time    6.1951: real time    6.2114
       DOS:  cpu time    0.0020: real time    0.0021
    --------------------------------------------
      LOOP:  cpu time    6.4859: real time    6.5302

 eigenvalue-minimisations  : 19200
 total energy-change (2. order) : 0.6952895E+02  (-0.3733722E+04)
 number of electron      48.0000000 magnetization       6.0000000
 augmentation part       48.0000000 magnetization       6.0000000

 Free energy of the ion-electron system (eV)
  ---------------------------------------------------
  alpha Z        PSCENC =       190.41734223
  Ewald energy   TEWEN  =     -3560.03765814
  -Hartree energ DENC   =     -1269.25800086
  -exchange      EXHF   =         0.00000000
  -V(xc)+E(xc)   XCENC  =       238.90323676
  PAW double counting   =      3906.62094758    -3882.31091084
  entropy T*S    EENTRO =        -0.00000000
  eigenvalues    EBANDS =      -458.25934740
  atomic energy  EATOM  =      4903.45334458
  Solvation  Ediel_sol  =         0.00000000
  ---------------------------------------------------
  free energy    TOTEN  =        69.52895392 eV

  energy without entropy =       69.52895392  energy(sigma->0) =       69.52895392


--------------------------------------------------------------------------------------------------------




--------------------------------------- Iteration      1(   2)  ---------------------------------------


     EDDAV:  cpu time   12.4453: real time   12.4818
       DOS:  cpu time    0.0023: real time    0.0023
    --------------------------------------------
      LOOP:  cpu time   12.4476: real time   12.4841

 eigenvalue-minimisations  : 28800
 total energy-change (2. order) :-0.1430597E+03  (-0.1430597E+03)
 number of electron      48.0000000 magnetization       6.0000000
 augmentation part       48.0000000 magnetization       6.0000000

 Free energy of the ion-electron system (eV)
  ---------------------------------------------------
  alpha Z        PSCENC =       190.41734223
  Ewald energy   TEWEN  =     -3560.03765814
  -Hartree energ DENC   =     -1269.25800086
  -exchange      EXHF   =         0.00000000
  -V(xc)+E(xc)   XCENC  =       238.90323676
  PAW double counting   =      3906.62094758    -3882.31091084
  entropy T*S    EENTRO =        -0.00000000
  eigenvalues    EBANDS =      -601.31905940
  atomic energy  EATOM  =      4903.45334458
  Solvation  Ediel_sol  =         0.00000000
  ---------------------------------------------------
  free energy    TOTEN  =       -73.53075808 eV

  energy without entropy =      -73.53075808  energy(sigma->0) =      -73.53075808


--------------------------------------------------------------------------------------------------------




--------------------------------------- Iteration      1(   3)  ---------------------------------------


     EDDAV:  cpu time    6.0571: real time    6.0771
       DOS:  cpu time    0.0020: real time    0.0021
    --------------------------------------------
      LOOP:  cpu time    6.0591: real time    6.0792

 eigenvalue-minimisations  : 19200
 total energy-change (2. order) :-0.4995304E+00  (-0.4995304E+00)
 number of electron      48.0000000 magnetization       6.0000000
 augmentation part       48.0000000 magnetization       6.0000000

 Free energy of the ion-electron system (eV)
  ---------------------------------------------------
  alpha Z        PSCENC =       190.41734223
  Ewald energy   TEWEN  =     -3560.03765814
  -Hartree energ DENC   =     -1269.25800086
  -exchange      EXHF   =         0.00000000
  -V(xc)+E(xc)   XCENC  =       238.90323676
  PAW double counting   =      3906.62094758    -3882.31091084
  entropy T*S    EENTRO =        -0.00000000
  eigenvalues    EBANDS =      -601.81858977
  atomic energy  EATOM  =      4903.45334458
  Solvation  Ediel_sol  =         0.00000000
  ---------------------------------------------------
  free energy    TOTEN  =       -74.03028846 eV

  energy without entropy =      -74.03028846  energy(sigma->0) =      -74.03028846


--------------------------------------------------------------------------------------------------------




--------------------------------------- Iteration      1(   4)  ---------------------------------------


     EDDAV:  cpu time   21.6246: real time   21.6849
       DOS:  cpu time    0.0019: real time    0.0019
    --------------------------------------------
      LOOP:  cpu time   21.6265: real time   21.6869

 eigenvalue-minimisations  : 37440
 total energy-change (2. order) :-0.9330233E-03  (-0.9330233E-03)
 number of electron      48.0000000 magnetization       6.0000000
 augmentation part       48.0000000 magnetization       6.0000000

 Free energy of the ion-electron system (eV)
  ---------------------------------------------------
  alpha Z        PSCENC =       190.41734223
  Ewald energy   TEWEN  =     -3560.03765814
  -Hartree energ DENC   =     -1269.25800086
  -exchange      EXHF   =         0.00000000
  -V(xc)+E(xc)   XCENC  =       238.90323676
  PAW double counting   =      3906.62094758    -3882.31091084
  entropy T*S    EENTRO =        -0.00000000
  eigenvalues    EBANDS =      -601.81952280
  atomic energy  EATOM  =      4903.45334458
  Solvation  Ediel_sol  =         0.00000000
  ---------------------------------------------------
  free energy    TOTEN  =       -74.03122148 eV

  energy without entropy =      -74.03122148  energy(sigma->0) =      -74.03122148


--------------------------------------------------------------------------------------------------------




--------------------------------------- Iteration      1(   5)  ---------------------------------------


     EDDAV:  cpu time    6.1001: real time    6.1200
       DOS:  cpu time    0.0020: real time    0.0020
    CHARGE:  cpu time    0.0545: real time    0.0547
    MIXING:  cpu time    0.0013: real time    0.0015
    --------------------------------------------
      LOOP:  cpu time    6.1579: real time    6.1781

 eigenvalue-minimisations  : 19200
 total energy-change (2. order) :-0.1289482E-07  (-0.1289566E-07)
 number of electron      47.9999984 magnetization      -0.2033452
 augmentation part        9.9152965 magnetization      -0.1126958

 Broyden mixing:
  rms(total) = 0.33359E+01    rms(broyden)= 0.33359E+01
  rms(prec ) = 0.58164E+01
  weight for this iteration     100.00

 Free energy of the ion-electron system (eV)
  ---------------------------------------------------
  alpha Z        PSCENC =       190.41734223
  Ewald energy   TEWEN  =     -3560.03765814
  -Hartree energ DENC   =     -1269.25800086
  -exchange      EXHF   =         0.00000000
  -V(xc)+E(xc)   XCENC  =       238.90323676
  PAW double counting   =      3906.62094758    -3882.31091084
  entropy T*S    EENTRO =        -0.00000000
  eigenvalues    EBANDS =      -601.81952281
  atomic energy  EATOM  =      4903.45334458
  Solvation  Ediel_sol  =         0.00000000
  ---------------------------------------------------
  free energy    TOTEN  =       -74.03122150 eV

  energy without entropy =      -74.03122150  energy(sigma->0) =      -74.03122150


--------------------------------------------------------------------------------------------------------




--------------------------------------- Iteration      1(   6)  ---------------------------------------


    POTLOK:  cpu time    0.0046: real time    0.0094
    SETDIJ:  cpu time    0.2710: real time    0.2717
    EDDIAG:  cpu time    1.0352: real time    1.0384
  RMM-DIIS:  cpu time    0.5370: real time    0.5384
    ORTHCH:  cpu time    0.1541: real time    0.1545
       DOS:  cpu time    0.0012: real time    0.0012
    CHARGE:  cpu time    0.0517: real time    0.0518
    MIXING:  cpu time    0.0005: real time    0.0005
    --------------------------------------------
      LOOP:  cpu time    2.0555: real time    2.0659

 eigenvalue-minimisations  : 19279
 total energy-change (2. order) : 0.1376709E+02  (-0.7667929E+00)
 number of electron      47.9999988 magnetization      -0.0510503
 augmentation part        9.9116066 magnetization      -0.1099105

 Broyden mixing:
  rms(total) = 0.14284E+01    rms(broyden)= 0.14283E+01
  rms(prec ) = 0.24549E+01
  weight for this iteration     100.00

 eigenvalues of (default mixing * dielectric matrix)
  average eigenvalue GAMMA=   0.7641
  0.7641

 Free energy of the ion-electron system (eV)
  ---------------------------------------------------
  alpha Z        PSCENC =       190.41734223
  Ewald energy   TEWEN  =     -3560.03765814
  -Hartree energ DENC   =     -1250.91819667
  -exchange      EXHF   =         0.00000000
  -V(xc)+E(xc)   XCENC  =       240.12205494
  PAW double counting   =      4420.57629109    -4402.94228474
  entropy T*S    EENTRO =        -0.00000000
  eigenvalues    EBANDS =      -600.93502812
  atomic energy  EATOM  =      4903.45334458
  Solvation  Ediel_sol  =         0.00000000
  ---------------------------------------------------
  free energy    TOTEN  =       -60.26413482 eV

  energy without entropy =      -60.26413482  energy(sigma->0) =      -60.26413482


--------------------------------------------------------------------------------------------------------




--------------------------------------- Iteration      1(   7)  ---------------------------------------


    POTLOK:  cpu time    0.0048: real time    0.0095
    SETDIJ:  cpu time    0.2733: real time    0.2742
    EDDIAG:  cpu time    1.0452: real time    1.0479
  RMM-DIIS:  cpu time    0.6110: real time    0.6125
    ORTHCH:  cpu time    0.1565: real time    0.1570
       DOS:  cpu time    0.0008: real time    0.0008
    CHARGE:  cpu time    0.0515: real time    0.0517
    MIXING:  cpu time    0.0004: real time    0.0003
    --------------------------------------------
      LOOP:  cpu time    2.1436: real time    2.1539

 eigenvalue-minimisations  : 19782
 total energy-change (2. order) : 0.1105489E+01  (-0.5155511E-01)
 number of electron      47.9999987 magnetization       0.0428921
 augmentation part        9.5677508 magnetization       0.0373958

 Broyden mixing:
  rms(total) = 0.79937E+00    rms(broyden)= 0.79937E+00
  rms(prec ) = 0.12067E+01
  weight for this iteration     100.00

 eigenvalues of (default mixing * dielectric matrix)
  average eigenvalue GAMMA=   0.9042
  1.1771  0.6312

 Free energy of the ion-electron system (eV)
  ---------------------------------------------------
  alpha Z        PSCENC =       190.41734223
  Ewald energy   TEWEN  =     -3560.03765814
  -Hartree energ DENC   =     -1250.77491579
  -exchange      EXHF   =         0.00000000
  -V(xc)+E(xc)   XCENC  =       239.13795227
  PAW double counting   =      4670.30837503    -4648.94744281
  entropy T*S    EENTRO =        -0.00000000
  eigenvalues    EBANDS =      -602.71564311
  atomic energy  EATOM  =      4903.45334458
  Solvation  Ediel_sol  =         0.00000000
  ---------------------------------------------------
  free energy    TOTEN  =       -59.15864574 eV

  energy without entropy =      -59.15864574  energy(sigma->0) =      -59.15864574


--------------------------------------------------------------------------------------------------------




--------------------------------------- Iteration      1(   8)  ---------------------------------------


    POTLOK:  cpu time    0.0076: real time    0.0093
    SETDIJ:  cpu time    0.2731: real time    0.2738
    EDDIAG:  cpu time    1.0350: real time    1.0377
  RMM-DIIS:  cpu time    0.6628: real time    0.6646
    ORTHCH:  cpu time    0.1560: real time    0.1564
       DOS:  cpu time    0.0008: real time    0.0009
    CHARGE:  cpu time    0.0521: real time    0.0523
    MIXING:  cpu time    0.0004: real time    0.0004
    --------------------------------------------
      LOOP:  cpu time    2.1880: real time    2.1953

 eigenvalue-minimisations  : 20467
 total energy-change (2. order) : 0.3912046E+00  (-0.1964987E-01)
 number of electron      47.9999987 magnetization       0.0143654
 augmentation part        9.7289996 magnetization       0.0240292

 Broyden mixing:
  rms(total) = 0.38642E+00    rms(broyden)= 0.38641E+00
  rms(prec ) = 0.69146E+00
  weight for this iteration     100.00

 eigenvalues of (default mixing * dielectric matrix)
  average eigenvalue GAMMA=   1.0991
  1.9542  0.8360  0.5071

 Free energy of the ion-electron system (eV)
  ---------------------------------------------------
  alpha Z        PSCENC =       190.41734223
  Ewald energy   TEWEN  =     -3560.03765814
  -Hartree energ DENC   =     -1236.49720110
  -exchange      EXHF   =         0.00000000
  -V(xc)+E(xc)   XCENC  =       238.71245527
  PAW double counting   =      5061.10210163    -5037.56449847
  entropy T*S    EENTRO =        -0.00000000
  eigenvalues    EBANDS =      -618.35332715
  atomic energy  EATOM  =      4903.45334458
  Solvation  Ediel_sol  =         0.00000000
  ---------------------------------------------------
  free energy    TOTEN  =       -58.76744115 eV

  energy without entropy =      -58.76744115  energy(sigma->0) =      -58.76744115


--------------------------------------------------------------------------------------------------------




--------------------------------------- Iteration      1(   9)  ---------------------------------------


    POTLOK:  cpu time    0.0054: real time    0.0104
    SETDIJ:  cpu time    0.2755: real time    0.2761
    EDDIAG:  cpu time    1.0692: real time    1.0720
  RMM-DIIS:  cpu time    0.6475: real time    0.6493
    ORTHCH:  cpu time    0.1609: real time    0.1613
       DOS:  cpu time    0.0008: real time    0.0008
    CHARGE:  cpu time    0.0516: real time    0.0517
    MIXING:  cpu time    0.0004: real time    0.0004
    --------------------------------------------
      LOOP:  cpu time    2.2113: real time    2.2220

 eigenvalue-minimisations  : 19907
 total energy-change (2. order) : 0.7710490E-01  (-0.1073532E-01)
 number of electron      47.9999987 magnetization       0.0045363
 augmentation part        9.6739708 magnetization      -0.0014967

 Broyden mixing:
  rms(total) = 0.18774E+00    rms(broyden)= 0.18774E+00
  rms(prec ) = 0.33916E+00
  weight for this iteration     100.00

 eigenvalues of (default mixing * dielectric matrix)
  average eigenvalue GAMMA=   1.0981
  2.2413  0.7913  0.7913  0.5687

 Free energy of the ion-electron system (eV)
  ---------------------------------------------------
  alpha Z        PSCENC =       190.41734223
  Ewald energy   TEWEN  =     -3560.03765814
  -Hartree energ DENC   =     -1236.20700682
  -exchange      EXHF   =         0.00000000
  -V(xc)+E(xc)   XCENC  =       238.61038529
  PAW double counting   =      5293.01801540    -5266.76389001
  entropy T*S    EENTRO =        -0.00000000
  eigenvalues    EBANDS =      -621.18086879
  atomic energy  EATOM  =      4903.45334458
  Solvation  Ediel_sol  =         0.00000000
  ---------------------------------------------------
  free energy    TOTEN  =       -58.69033626 eV

  energy without entropy =      -58.69033626  energy(sigma->0) =      -58.69033626


--------------------------------------------------------------------------------------------------------




--------------------------------------- Iteration      1(  10)  ---------------------------------------


    POTLOK:  cpu time    0.0061: real time    0.0106
    SETDIJ:  cpu time    0.2731: real time    0.2738
    EDDIAG:  cpu time    1.0449: real time    1.0476
  RMM-DIIS:  cpu time    0.6557: real time    0.6575
    ORTHCH:  cpu time    0.1559: real time    0.1563
       DOS:  cpu time    0.0008: real time    0.0008
    CHARGE:  cpu time    0.0515: real time    0.0516
    MIXING:  cpu time    0.0005: real time    0.0005
    --------------------------------------------
      LOOP:  cpu time    2.1884: real time    2.1986

 eigenvalue-minimisations  : 20211
 total energy-change (2. order) : 0.2425180E-01  (-0.1821151E-02)
 number of electron      47.9999987 magnetization      -0.0007116
 augmentation part        9.6213751 magnetization       0.0008381

 Broyden mixing:
  rms(total) = 0.78591E-01    rms(broyden)= 0.78590E-01
  rms(prec ) = 0.13551E+00
  weight for this iteration     100.00

 eigenvalues of (default mixing * dielectric matrix)
  average eigenvalue GAMMA=   1.0740
  2.2221  1.1218  0.8423  0.5284  0.6555

 Free energy of the ion-electron system (eV)
  ---------------------------------------------------
  alpha Z        PSCENC =       190.41734223
  Ewald energy   TEWEN  =     -3560.03765814
  -Hartree energ DENC   =     -1239.81904531
  -exchange      EXHF   =         0.00000000
  -V(xc)+E(xc)   XCENC  =       238.77349121
  PAW double counting   =      5304.55702642    -5277.42656787
  entropy T*S    EENTRO =        -0.00000000
  eigenvalues    EBANDS =      -618.58401758
  atomic energy  EATOM  =      4903.45334458
  Solvation  Ediel_sol  =         0.00000000
  ---------------------------------------------------
  free energy    TOTEN  =       -58.66608446 eV

  energy without entropy =      -58.66608446  energy(sigma->0) =      -58.66608446


--------------------------------------------------------------------------------------------------------




--------------------------------------- Iteration      1(  11)  ---------------------------------------


    POTLOK:  cpu time    0.0043: real time    0.0102
    SETDIJ:  cpu time    0.2732: real time    0.2738
    EDDIAG:  cpu time    1.0373: real time    1.0400
  RMM-DIIS:  cpu time    0.6606: real time    0.6622
    ORTHCH:  cpu time    0.1555: real time    0.1559
       DOS:  cpu time    0.0008: real time    0.0008
    CHARGE:  cpu time    0.0518: real time    0.0519
    MIXING:  cpu time    0.0004: real time    0.0004
    --------------------------------------------
      LOOP:  cpu time    2.1838: real time    2.1952

 eigenvalue-minimisations  : 20496
 total energy-change (2. order) : 0.2938541E-02  (-0.8620007E-03)
 number of electron      47.9999987 magnetization       0.0002197
 augmentation part        9.5893018 magnetization       0.0009386

 Broyden mixing:
  rms(total) = 0.30574E-01    rms(broyden)= 0.30573E-01
  rms(prec ) = 0.33528E-01
  weight for this iteration     100.00

 eigenvalues of (default mixing * dielectric matrix)
  average eigenvalue GAMMA=   1.1955
  2.5984  1.7704  0.8868  0.7859  0.5228  0.6088

 Free energy of the ion-electron system (eV)
  ---------------------------------------------------
  alpha Z        PSCENC =       190.41734223
  Ewald energy   TEWEN  =     -3560.03765814
  -Hartree energ DENC   =     -1243.75799224
  -exchange      EXHF   =         0.00000000
  -V(xc)+E(xc)   XCENC  =       238.97667273
  PAW double counting   =      5316.55392036    -5288.19773792
  entropy T*S    EENTRO =        -0.00000000
  eigenvalues    EBANDS =      -616.07103753
  atomic energy  EATOM  =      4903.45334458
  Solvation  Ediel_sol  =         0.00000000
  ---------------------------------------------------
  free energy    TOTEN  =       -58.66314591 eV

  energy without entropy =      -58.66314591  energy(sigma->0) =      -58.66314591


--------------------------------------------------------------------------------------------------------




--------------------------------------- Iteration      1(  12)  ---------------------------------------


    POTLOK:  cpu time    0.0051: real time    0.0101
    SETDIJ:  cpu time    0.2732: real time    0.2740
    EDDIAG:  cpu time    1.0275: real time    1.0302
  RMM-DIIS:  cpu time    0.6577: real time    0.6593
    ORTHCH:  cpu time    0.1592: real time    0.1597
       DOS:  cpu time    0.0009: real time    0.0009
    CHARGE:  cpu time    0.0518: real time    0.0519
    MIXING:  cpu time    0.0004: real time    0.0004
    --------------------------------------------
      LOOP:  cpu time    2.1758: real time    2.1866

 eigenvalue-minimisations  : 20425
 total energy-change (2. order) :-0.6031036E-03  (-0.2243584E-03)
 number of electron      47.9999987 magnetization       0.0001069
 augmentation part        9.5876306 magnetization       0.0000943

 Broyden mixing:
  rms(total) = 0.71255E-02    rms(broyden)= 0.71254E-02
  rms(prec ) = 0.14695E-01
  weight for this iteration     100.00

 eigenvalues of (default mixing * dielectric matrix)
  average eigenvalue GAMMA=   1.1776
  2.6542  1.5724  1.2149  0.8965  0.7674  0.5267  0.6112

 Free energy of the ion-electron system (eV)
  ---------------------------------------------------
  alpha Z        PSCENC =       190.41734223
  Ewald energy   TEWEN  =     -3560.03765814
  -Hartree energ DENC   =     -1244.41397169
  -exchange      EXHF   =         0.00000000
  -V(xc)+E(xc)   XCENC  =       239.01788172
  PAW double counting   =      5333.98130680    -5305.01629266
  entropy T*S    EENTRO =        -0.00000000
  eigenvalues    EBANDS =      -616.06570186
  atomic energy  EATOM  =      4903.45334458
  Solvation  Ediel_sol  =         0.00000000
  ---------------------------------------------------
  free energy    TOTEN  =       -58.66374902 eV

  energy without entropy =      -58.66374902  energy(sigma->0) =      -58.66374902


--------------------------------------------------------------------------------------------------------




--------------------------------------- Iteration      1(  13)  ---------------------------------------


    POTLOK:  cpu time    0.0044: real time    0.0098
    SETDIJ:  cpu time    0.2736: real time    0.2743
    EDDIAG:  cpu time    1.0300: real time    1.0327
  RMM-DIIS:  cpu time    0.6517: real time    0.6534
    ORTHCH:  cpu time    0.1555: real time    0.1559
       DOS:  cpu time    0.0008: real time    0.0008
    CHARGE:  cpu time    0.0517: real time    0.0519
    MIXING:  cpu time    0.0004: real time    0.0004
    --------------------------------------------
      LOOP:  cpu time    2.1682: real time    2.1792

 eigenvalue-minimisations  : 20101
 total energy-change (2. order) : 0.4428514E-04  (-0.3185189E-04)
 number of electron      47.9999987 magnetization       0.0000663
 augmentation part        9.5881151 magnetization      -0.0001738

 Broyden mixing:
  rms(total) = 0.50783E-02    rms(broyden)= 0.50782E-02
  rms(prec ) = 0.94327E-02
  weight for this iteration     100.00

 eigenvalues of (default mixing * dielectric matrix)
  average eigenvalue GAMMA=   1.2099
  2.6503  1.8111  1.5658  0.8861  0.8861  0.5299  0.7384  0.6111

 Free energy of the ion-electron system (eV)
  ---------------------------------------------------
  alpha Z        PSCENC =       190.41734223
  Ewald energy   TEWEN  =     -3560.03765814
  -Hartree energ DENC   =     -1244.20658748
  -exchange      EXHF   =         0.00000000
  -V(xc)+E(xc)   XCENC  =       239.00124245
  PAW double counting   =      5333.91551053    -5304.82757574
  entropy T*S    EENTRO =        -0.00000000
  eigenvalues    EBANDS =      -616.37932317
  atomic energy  EATOM  =      4903.45334458
  Solvation  Ediel_sol  =         0.00000000
  ---------------------------------------------------
  free energy    TOTEN  =       -58.66370473 eV

  energy without entropy =      -58.66370473  energy(sigma->0) =      -58.66370473


--------------------------------------------------------------------------------------------------------




--------------------------------------- Iteration      1(  14)  ---------------------------------------


    POTLOK:  cpu time    0.0054: real time    0.0101
    SETDIJ:  cpu time    0.2733: real time    0.2740
    EDDIAG:  cpu time    1.0706: real time    1.0733
  RMM-DIIS:  cpu time    0.6954: real time    0.6972
    ORTHCH:  cpu time    0.1623: real time    0.1627
       DOS:  cpu time    0.0009: real time    0.0009
    CHARGE:  cpu time    0.0628: real time    0.0629
    MIXING:  cpu time    0.0006: real time    0.0006
    --------------------------------------------
      LOOP:  cpu time    2.2712: real time    2.2818

 eigenvalue-minimisations  : 20751
 total energy-change (2. order) :-0.1430290E-04  (-0.1040074E-04)
 number of electron      47.9999987 magnetization       0.0000033
 augmentation part        9.5858486 magnetization      -0.0001093

 Broyden mixing:
  rms(total) = 0.18709E-02    rms(broyden)= 0.18709E-02
  rms(prec ) = 0.31094E-02
  weight for this iteration     100.00

 eigenvalues of (default mixing * dielectric matrix)
  average eigenvalue GAMMA=   1.2716
  2.8939  2.4299  1.3979  1.0075  1.0075  0.8449  0.5290  0.7242  0.6096

 Free energy of the ion-electron system (eV)
  ---------------------------------------------------
  alpha Z        PSCENC =       190.41734223
  Ewald energy   TEWEN  =     -3560.03765814
  -Hartree energ DENC   =     -1244.43367425
  -exchange      EXHF   =         0.00000000
  -V(xc)+E(xc)   XCENC  =       239.01119027
  PAW double counting   =      5333.85037942    -5304.54477910
  entropy T*S    EENTRO =        -0.00000000
  eigenvalues    EBANDS =      -616.37986406
  atomic energy  EATOM  =      4903.45334458
  Solvation  Ediel_sol  =         0.00000000
  ---------------------------------------------------
  free energy    TOTEN  =       -58.66371904 eV

  energy without entropy =      -58.66371904  energy(sigma->0) =      -58.66371904


--------------------------------------------------------------------------------------------------------




--------------------------------------- Iteration      1(  15)  ---------------------------------------


    POTLOK:  cpu time    0.0061: real time    0.0111
    SETDIJ:  cpu time    0.2820: real time    0.2827
    EDDIAG:  cpu time    1.0846: real time    1.0874
  RMM-DIIS:  cpu time    0.7172: real time    0.7191
    ORTHCH:  cpu time    0.1625: real time    0.1629
       DOS:  cpu time    0.0009: real time    0.0009
    CHARGE:  cpu time    0.0529: real time    0.0530
    MIXING:  cpu time    0.0006: real time    0.0006
    --------------------------------------------
      LOOP:  cpu time    2.3067: real time    2.3177

 eigenvalue-minimisations  : 20450
 total energy-change (2. order) :-0.6211386E-05  (-0.3092675E-05)
 number of electron      47.9999987 magnetization      -0.0000122
 augmentation part        9.5840661 magnetization      -0.0000713

 Broyden mixing:
  rms(total) = 0.48672E-03    rms(broyden)= 0.48669E-03
  rms(prec ) = 0.69858E-03
  weight for this iteration     100.00

 eigenvalues of (default mixing * dielectric matrix)
  average eigenvalue GAMMA=   1.2489
  3.0130  2.3766  1.3028  1.3028  0.9363  0.9363  0.5291  0.7795  0.6114  0.7013

 Free energy of the ion-electron system (eV)
  ---------------------------------------------------
  alpha Z        PSCENC =       190.41734223
  Ewald energy   TEWEN  =     -3560.03765814
  -Hartree energ DENC   =     -1244.58993003
  -exchange      EXHF   =         0.00000000
  -V(xc)+E(xc)   XCENC  =       239.01935747
  PAW double counting   =      5334.04411748    -5304.62327073
  entropy T*S    EENTRO =        -0.00000000
  eigenvalues    EBANDS =      -616.34702811
  atomic energy  EATOM  =      4903.45334458
  Solvation  Ediel_sol  =         0.00000000
  ---------------------------------------------------
  free energy    TOTEN  =       -58.66372525 eV

  energy without entropy =      -58.66372525  energy(sigma->0) =      -58.66372525


--------------------------------------------------------------------------------------------------------




--------------------------------------- Iteration      1(  16)  ---------------------------------------


    POTLOK:  cpu time    0.0044: real time    0.0100
    SETDIJ:  cpu time    0.2728: real time    0.2736
    EDDIAG:  cpu time    1.0453: real time    1.0480
  RMM-DIIS:  cpu time    0.6804: real time    0.6821
    ORTHCH:  cpu time    0.1552: real time    0.1558
       DOS:  cpu time    0.0009: real time    0.0009
    --------------------------------------------
      LOOP:  cpu time    2.1590: real time    2.1703

 eigenvalue-minimisations  : 18205
 total energy-change (2. order) :-0.6531154E-06  (-0.5762323E-06)
 number of electron      47.9999987 magnetization      -0.0000122
 augmentation part        9.5840661 magnetization      -0.0000713

 Free energy of the ion-electron system (eV)
  ---------------------------------------------------
  alpha Z        PSCENC =       190.41734223
  Ewald energy   TEWEN  =     -3560.03765814
  -Hartree energ DENC   =     -1244.59096997
  -exchange      EXHF   =         0.00000000
  -V(xc)+E(xc)   XCENC  =       239.01939847
  PAW double counting   =      5334.22553048    -5304.79158470
  entropy T*S    EENTRO =        -0.00000000
  eigenvalues    EBANDS =      -616.35912887
  atomic energy  EATOM  =      4903.45334458
  Solvation  Ediel_sol  =         0.00000000
  ---------------------------------------------------
  free energy    TOTEN  =       -58.66372590 eV

  energy without entropy =      -58.66372590  energy(sigma->0) =      -58.66372590


--------------------------------------------------------------------------------------------------------




 average (electrostatic) potential at core
  the test charge radii are     1.0397  0.7215
  (the norm of the test charge is              1.0000)
       1 -76.7496       2 -76.7496       3 -70.7664       4 -70.7664       5 -70.7664
       6 -70.7664
 
 
 
 E-fermi :   4.6374     XC(G=0): -11.8460     alpha+bet :-13.3149

 Fermi energy:         4.6373720130

 spin component 1

 k-point     1 :       0.0000    0.0000    0.0000
  band No.  band energies     occupation 
      1     -52.0028      1.00000
      2     -51.9870      1.00000
      3     -28.6858      1.00000
      4     -28.6858      1.00000
      5     -28.5336      1.00000
      6     -28.5336      1.00000
      7     -28.5023      1.00000
      8     -28.4718      1.00000
      9     -13.5369      1.00000
     10     -12.3623      1.00000
     11     -11.6660      1.00000
     12     -11.6660      1.00000
     13      -1.4645      1.00000
     14      -1.0063      1.00000
     15      -0.6043      1.00000
     16       0.5219      1.00000
     17       0.5219      1.00000
     18       1.6892      1.00000
     19       1.6892      1.00000
     20       2.3315      1.00000
     21       3.5691      1.00000
     22       3.7963      1.00000
     23       3.7963      1.00000
     24       4.2374      1.00000
     25       5.9734      0.00000
     26       6.2366      0.00000
     27       6.5391      0.00000
     28       6.6174      0.00000
     29       6.6174      0.00000
     30       8.4575      0.00000
     31       8.6526      0.00000
     32      10.6814      0.00000
     33      10.6814      0.00000
     34      11.5458      0.00000
     35      11.7669      0.00000
     36      15.5080      0.00000
     37      15.5080      0.00000
     38      18.1663      0.00000
     39      19.5235      0.00000
     40      20.1971      0.00000
     41      21.7240      0.00000
     42      22.8890      0.00000
     43      22.8890      0.00000
     44      23.3431      0.00000
     45      25.1331      0.00000
     46      26.6096      0.00000
     47      27.6055      0.00000
     48      27.6055      0.00000
     49      28.7333      0.00000
     50      29.1187      0.00000
     51      29.1187      0.00000
     52      29.6047      0.00000
     53      30.0710      0.00000
     54      30.0710      0.00000
     55      30.5642      0.00000
     56      32.5689      0.00000
     57      34.8859      0.00000
     58      35.5126      0.00000
     59      35.6343      0.00000
     60      36.0024      0.00000
     61      36.0024      0.00000
     62      37.0289      0.00000
     63      37.5151      0.00000
     64      37.5152      0.00000
     65      39.5414      0.00000
     66      40.0112      0.00000
     67      40.0112      0.00000
     68      40.4674      0.00000
     69      43.2481      0.00000
     70      43.8951      0.00000
     71      43.8953      0.00000
     72      43.9826      0.00000
     73      44.2604      0.00000
     74      44.5130      0.00000
     75      45.4830      0.00000
     76      45.4832      0.00000
     77      46.5083      0.00000
     78      46.5086      0.00000
     79      46.7447      0.00000
     80      47.1374      0.00000

 k-point     2 :       0.1429    0.0000    0.0000
  band No.  band energies     occupation 
      1     -52.0020      1.00000
      2     -51.9878      1.00000
      3     -28.6799      1.00000
      4     -28.6793      1.00000
      5     -28.5408      1.00000
      6     -28.5402      1.00000
      7     -28.5008      1.00000
      8     -28.4733      1.00000
      9     -13.4671      1.00000
     10     -12.3700      1.00000
     11     -11.7333      1.00000
     12     -11.6909      1.00000
     13      -1.3351      1.00000
     14      -0.9309      1.00000
     15      -0.4753      1.00000
     16       0.5295      1.00000
     17       0.5353      1.00000
     18       1.5685      1.00000
     19       1.6602      1.00000
     20       2.3412      1.00000
     21       3.4217      1.00000
     22       3.4405      1.00000
     23       3.6303      1.00000
     24       4.1724      1.00000
     25       6.0858      0.00000
     26       6.3850      0.00000
     27       6.6876      0.00000
     28       6.6949      0.00000
     29       6.7279      0.00000
     30       8.5422      0.00000
     31       8.6158      0.00000
     32      10.6158      0.00000
     33      10.6300      0.00000
     34      11.4489      0.00000
     35      11.9888      0.00000
     36      15.4297      0.00000
     37      15.6550      0.00000
     38      18.2129      0.00000
     39      19.3554      0.00000
     40      20.0792      0.00000
     41      21.6575      0.00000
     42      22.8704      0.00000
     43      23.2141      0.00000
     44      23.5271      0.00000
     45      25.3119      0.00000
     46      26.5214      0.00000
     47      26.5327      0.00000
     48      27.1732      0.00000
     49      27.6733      0.00000
     50      29.2672      0.00000
     51      29.5598      0.00000
     52      29.5738      0.00000
     53      30.1771      0.00000
     54      30.3393      0.00000
     55      31.9807      0.00000
     56      32.6386      0.00000
     57      34.6190      0.00000
     58      35.3409      0.00000
     59      35.5215      0.00000
     60      35.9663      0.00000
     61      36.0243      0.00000
     62      37.3572      0.00000
     63      37.7169      0.00000
     64      38.1707      0.00000
     65      39.2678      0.00000
     66      40.1466      0.00000
     67      40.5178      0.00000
     68      40.8412      0.00000
     69      43.0470      0.00000
     70      43.1699      0.00000
     71      43.2301      0.00000
     72      43.5961      0.00000
     73      44.1227      0.00000
     74      44.1791      0.00000
     75      45.3463      0.00000
     76      45.4523      0.00000
     77      46.3500      0.00000
     78      46.7877      0.00000
     79      47.3923      0.00000
     80      48.0543      0.00000

 k-point     3 :       0.2857    0.0000    0.0000
  band No.  band energies     occupation 
      1     -51.9998      1.00000
      2     -51.9900      1.00000
      3     -28.6636      1.00000
      4     -28.6620      1.00000
      5     -28.5597      1.00000
      6     -28.5580      1.00000
      7     -28.4965      1.00000
      8     -28.4775      1.00000
      9     -13.2690      1.00000
     10     -12.4399      1.00000
     11     -11.8618      1.00000
     12     -11.7569      1.00000
     13      -1.0291      1.00000
     14      -0.7495      1.00000
     15      -0.0625      1.00000
     16       0.5492      1.00000
     17       0.5628      1.00000
     18       1.3052      1.00000
     19       1.5226      1.00000
     20       2.3961      1.00000
[...]
     62      39.3812      0.00000
     63      40.1338      0.00000
     64      40.7000      0.00000
     65      41.5389      0.00000
     66      42.0709      0.00000
     67      42.6919      0.00000
     68      43.4866      0.00000
     69      44.5330      0.00000
     70      45.2653      0.00000
     71      45.5749      0.00000
     72      46.1208      0.00000
     73      46.4657      0.00000
     74      47.0769      0.00000
     75      47.9583      0.00000
     76      48.4725      0.00000
     77      49.1872      0.00000
     78      49.6117      0.00000
     79      51.2988      0.00000
     80      51.7032      0.00000

 k-point    60 :       0.4286    0.4286    0.4545
  band No.  band energies     occupation 
      1     -51.1572      1.00000
      2     -51.1571      1.00000
      3     -28.2261      1.00000
      4     -28.2241      1.00000
      5     -27.8058      1.00000
      6     -27.8026      1.00000
      7     -27.7618      1.00000
      8     -27.7615      1.00000
      9     -11.8547      1.00000
     10     -11.7753      1.00000
     11     -11.4697      1.00000
     12     -11.3856      1.00000
     13      -0.2514      1.00000
     14      -0.0920      1.00000
     15       0.1908      1.00000
     16       0.3142      1.00000
     17       1.1503      1.00000
     18       1.3082      1.00000
     19       2.0929      1.00000
     20       2.1335      1.00000
     21       3.3957      1.00000
     22       3.4604      1.00000
     23       4.0940      1.00000
     24       4.1596      1.00000
     25       7.2843      0.00000
     26       7.5440      0.00000
     27       8.0751      0.00000
     28       8.1628      0.00000
     29       8.1809      0.00000
     30       8.3455      0.00000
     31      10.6627      0.00000
     32      11.0885      0.00000
     33      11.1885      0.00000
     34      11.6140      0.00000
     35      16.3347      0.00000
     36      16.4770      0.00000
     37      18.6734      0.00000
     38      19.2274      0.00000
     39      19.5861      0.00000
     40      20.0919      0.00000
     41      22.2447      0.00000
     42      22.2967      0.00000
     43      23.5629      0.00000
     44      23.8273      0.00000
     45      24.3616      0.00000
     46      24.7194      0.00000
     47      28.2683      0.00000
     48      28.7973      0.00000
     49      29.8598      0.00000
     50      29.9322      0.00000
     51      30.8997      0.00000
     52      31.4563      0.00000
     53      33.9458      0.00000
     54      33.9862      0.00000
     55      36.5810      0.00000
     56      36.9231      0.00000
     57      37.9158      0.00000
     58      38.2880      0.00000
     59      38.5943      0.00000
     60      39.0744      0.00000
     61      39.4258      0.00000
     62      39.9877      0.00000
     63      40.1217      0.00000
     64      40.5049      0.00000
     65      40.8420      0.00000
     66      41.5164      0.00000
     67      43.0154      0.00000
     68      43.3498      0.00000
     69      43.9502      0.00000
     70      44.4693      0.00000
     71      44.7180      0.00000
     72      45.1172      0.00000
     73      45.4411      0.00000
     74      46.2489      0.00000
     75      47.6016      0.00000
     76      47.7736      0.00000
     77      49.6590      0.00000
     78      49.7608      0.00000
     79      51.5909      0.00000
     80      51.8235      0.00000


--------------------------------------------------------------------------------------------------------


 soft charge-density along one line, spin component           1
         0         1         2         3         4         5         6         7         8         9
 total charge-density along one line
 
 soft charge-density along one line, spin component           2
         0         1         2         3         4         5         6         7         8         9
 total charge-density along one line
 
 pseudopotential strength for first ion, spin component:           1
 -2.870 -21.522   0.000  -0.000  -0.000  -0.000   0.000  -0.000
-21.522   9.295  -0.000  -0.000  -0.000   0.000  -0.000  -0.000
  0.000  -0.000 -24.257   0.000  -0.003   8.604  -0.000   0.002
 -0.000  -0.000   0.000 -24.280   0.000  -0.000   8.619  -0.000
 -0.000  -0.000  -0.003   0.000 -24.257   0.002  -0.000   8.604
 -0.000   0.000   8.604  -0.000   0.002   5.915   0.000  -0.000
  0.000  -0.000  -0.000   8.619  -0.000   0.000   5.912   0.000
 -0.000  -0.000   0.002  -0.000   8.604  -0.000   0.000   5.915
 -0.002  -0.001   0.000   0.000   0.000   0.000  -0.000   0.000
  0.000   0.000  -0.000   0.000   0.000   0.000  -0.000  -0.000
 -0.010  -0.003  -0.000  -0.000  -0.000  -0.000   0.000  -0.000
  0.000   0.000   0.000  -0.000  -0.000  -0.000  -0.000   0.000
  0.000   0.000  -0.000  -0.000  -0.000  -0.000   0.000  -0.000
 -0.003  -0.001   0.000   0.000   0.000   0.000  -0.000   0.000
  0.000   0.000  -0.000   0.000   0.000   0.000  -0.000  -0.000
 -0.013  -0.004  -0.000  -0.000  -0.000  -0.000   0.000  -0.000
  0.000   0.000   0.000  -0.000  -0.000  -0.000  -0.000   0.000
  0.000   0.000  -0.000  -0.000  -0.000  -0.000   0.000  -0.000
 pseudopotential strength for first ion, spin component:           2
 -2.870 -21.522   0.000  -0.000  -0.000  -0.000   0.000  -0.000
-21.522   9.295  -0.000  -0.000  -0.000   0.000  -0.000  -0.000
  0.000  -0.000 -24.257   0.000  -0.003   8.604  -0.000   0.002
 -0.000  -0.000   0.000 -24.280   0.000  -0.000   8.619  -0.000
 -0.000  -0.000  -0.003   0.000 -24.257   0.002  -0.000   8.604
 -0.000   0.000   8.604  -0.000   0.002   5.915   0.000  -0.000
  0.000  -0.000  -0.000   8.619  -0.000   0.000   5.912   0.000
 -0.000  -0.000   0.002  -0.000   8.604  -0.000   0.000   5.915
 -0.002  -0.001   0.000   0.000   0.000   0.000  -0.000   0.000
  0.000   0.000  -0.000   0.000   0.000   0.000  -0.000  -0.000
 -0.010  -0.003  -0.000  -0.000  -0.000  -0.000   0.000  -0.000
  0.000   0.000   0.000  -0.000  -0.000  -0.000  -0.000   0.000
  0.000   0.000  -0.000  -0.000  -0.000  -0.000   0.000  -0.000
 -0.003  -0.001   0.000   0.000   0.000   0.000  -0.000   0.000
  0.000   0.000  -0.000   0.000   0.000   0.000  -0.000  -0.000
 -0.013  -0.004  -0.000  -0.000  -0.000  -0.000   0.000  -0.000
  0.000   0.000   0.000  -0.000  -0.000  -0.000  -0.000   0.000
  0.000   0.000  -0.000  -0.000  -0.000  -0.000   0.000  -0.000
 total augmentation occupancy for first ion, spin component:           1
  1.992  -0.096   0.000   0.000   0.000   0.000   0.000   0.000  -0.001   0.000   0.015   0.000   0.000   0.001   0.000  -0.012
 -0.096   1.528   0.000   0.000   0.000   0.000   0.000   0.000  -0.070   0.000   0.383   0.000   0.000   0.061   0.000  -0.279
  0.000   0.000   1.973   0.000   0.000  -0.061   0.000   0.000   0.000   0.000   0.000   0.000   0.000   0.000   0.000   0.000
  0.000   0.000   0.000   1.974   0.000   0.000  -0.058   0.000   0.000   0.000   0.000   0.000   0.000   0.000   0.000   0.000
  0.000   0.000   0.000   0.000   1.973   0.000   0.000  -0.061   0.000   0.000   0.000   0.000   0.000   0.000   0.000   0.000
  0.000   0.000  -0.061   0.000   0.000   0.205   0.000   0.003   0.000   0.000   0.000   0.000   0.000   0.000   0.000   0.000
  0.000   0.000   0.000  -0.058   0.000   0.000   0.233   0.000   0.000   0.000   0.000   0.000   0.000   0.000   0.000   0.000
  0.000   0.000   0.000   0.000  -0.061   0.003   0.000   0.205   0.000   0.000   0.000   0.000   0.000   0.000   0.000   0.000
 -0.001  -0.070   0.000   0.000   0.000   0.000   0.000   0.000   6.562   0.000   2.976   0.000   0.000  -4.159   0.000  -2.002
  0.000   0.000   0.000   0.000   0.000   0.000   0.000   0.000   0.000   5.908   0.000   3.315   0.000   0.000  -3.703   0.000
  0.015   0.383   0.000   0.000   0.000   0.000   0.000   0.000   2.976   0.000   4.965   0.000   0.000  -2.005   0.000  -3.165
  0.000   0.000   0.000   0.000   0.000   0.000   0.000   0.000   0.000   3.315   0.000   5.908   0.000   0.000  -2.225   0.000
  0.000   0.000   0.000   0.000   0.000   0.000   0.000   0.000   0.000   0.000   0.000   0.000   2.228  -0.000   0.000  -0.000
  0.001   0.061   0.000   0.000   0.000   0.000   0.000   0.000  -4.159   0.000  -2.005   0.000  -0.000   2.685   0.000   1.364
  0.000   0.000   0.000   0.000   0.000   0.000   0.000   0.000   0.000  -3.703   0.000  -2.225   0.000   0.000   2.365   0.000
 -0.012  -0.279   0.000   0.000   0.000   0.000   0.000   0.000  -2.002   0.000  -3.165   0.000  -0.000   1.364   0.000   2.043
  0.000   0.000   0.000   0.000   0.000   0.000   0.000   0.000   0.000  -2.225   0.000  -3.703   0.000   0.000   1.511   0.000
 -0.000  -0.000   0.000   0.000   0.000   0.000   0.000   0.000  -0.000   0.000  -0.000   0.000  -1.202   0.000   0.000   0.000
 total augmentation occupancy for first ion, spin component:           2
 -0.000  -0.000   0.000   0.000   0.000   0.000   0.000   0.000   0.000   0.000  -0.000   0.000  -0.000  -0.000   0.000  -0.000
 -0.000   0.000   0.000   0.000   0.000   0.000   0.000   0.000  -0.000   0.000  -0.000   0.000  -0.000   0.000   0.000  -0.000
  0.000   0.000   0.000   0.000  -0.000   0.000   0.000  -0.000   0.000   0.000   0.000   0.000   0.000   0.000   0.000   0.000
  0.000   0.000   0.000  -0.000   0.000   0.000  -0.000   0.000   0.000   0.000   0.000   0.000   0.000   0.000   0.000   0.000
  0.000   0.000  -0.000   0.000   0.000  -0.000   0.000   0.000   0.000   0.000   0.000   0.000   0.000   0.000   0.000   0.000
  0.000   0.000   0.000   0.000  -0.000   0.000   0.000   0.000   0.000   0.000   0.000   0.000   0.000   0.000   0.000   0.000
  0.000   0.000   0.000  -0.000   0.000   0.000   0.000   0.000   0.000   0.000   0.000   0.000   0.000   0.000   0.000   0.000
  0.000   0.000  -0.000   0.000   0.000   0.000   0.000   0.000   0.000   0.000   0.000   0.000   0.000   0.000   0.000   0.000
  0.000  -0.000   0.000   0.000   0.000   0.000   0.000   0.000   0.000   0.000   0.000   0.000   0.000  -0.000   0.000  -0.000
  0.000   0.000   0.000   0.000   0.000   0.000   0.000   0.000   0.000   0.000   0.000  -0.000   0.000   0.000  -0.000   0.000
 -0.000  -0.000   0.000   0.000   0.000   0.000   0.000   0.000   0.000   0.000  -0.000   0.000  -0.000  -0.000   0.000   0.000
  0.000   0.000   0.000   0.000   0.000   0.000   0.000   0.000   0.000  -0.000   0.000   0.000   0.000   0.000   0.000   0.000
 -0.000  -0.000   0.000   0.000   0.000   0.000   0.000   0.000   0.000   0.000  -0.000   0.000   0.000  -0.000   0.000  -0.000
 -0.000   0.000   0.000   0.000   0.000   0.000   0.000   0.000  -0.000   0.000  -0.000   0.000  -0.000   0.000   0.000   0.000
  0.000   0.000   0.000   0.000   0.000   0.000   0.000   0.000   0.000  -0.000   0.000   0.000   0.000   0.000   0.000   0.000
 -0.000  -0.000   0.000   0.000   0.000   0.000   0.000   0.000  -0.000   0.000   0.000   0.000  -0.000   0.000   0.000  -0.000
  0.000   0.000   0.000   0.000   0.000   0.000   0.000   0.000   0.000   0.000   0.000  -0.000   0.000   0.000  -0.000   0.000
  0.000  -0.000   0.000   0.000   0.000   0.000   0.000   0.000  -0.000   0.000   0.000   0.000   0.000   0.000   0.000  -0.000


------------------------ aborting loop because EDIFF is reached ----------------------------------------





 total charge

# of ion       s       p       d       tot
------------------------------------------
    1        2.234   6.329   1.780  10.343
    2        2.234   6.329   1.780  10.343
    3        1.559   3.497   0.000   5.056
    4        1.559   3.497   0.000   5.056
    5        1.559   3.497   0.000   5.056
    6        1.559   3.497   0.000   5.056
--------------------------------------------------
tot         10.704  26.645   3.560  40.909



 magnetization (x)

# of ion       s       p       d       tot
------------------------------------------
    1        0.000   0.000  -0.000  -0.000
    2        0.000   0.000  -0.000  -0.000
    3       -0.000   0.000   0.000  -0.000
    4       -0.000   0.000   0.000  -0.000
    5       -0.000   0.000   0.000  -0.000
    6       -0.000   0.000   0.000  -0.000
--------------------------------------------------
tot          0.000   0.000  -0.000  -0.000
 
    CHARGE:  cpu time    0.0513: real time    0.0514
    FORLOC:  cpu time    0.0003: real time    0.0003
    FORNL :  cpu time    0.1061: real time    0.1063
    STRESS:  cpu time    0.6506: real time    0.6522
    FORCOR:  cpu time    0.0019: real time    0.0019
    FORHAR:  cpu time    0.0009: real time    0.0009
    MIXING:  cpu time    0.0003: real time    0.0003
    OFIELD:  cpu time    0.0000: real time    0.0000

  FORCE on cell =-STRESS in cart. coord.  units (eV):
  Direction    XX          YY          ZZ          XY          YZ          ZX
  --------------------------------------------------------------------------------------
  Alpha Z   201.68486   201.68486   201.68486
  Ewald   -1399.09087 -1399.09087  -834.71079    -0.00000    -0.00000    -0.00000
  Hartree   297.72101   297.72101   618.17936    -0.00000    -0.00000    -0.00000
  E(xc)    -240.48794  -240.48794  -240.48829    -0.00000     0.00000    -0.00000
  Local     262.45353   262.45353  -611.93010    -0.00000     0.00000     0.00000
  n-local  -151.44271  -149.86444  -154.62688    -0.76185     0.21663     0.13299
  augment   145.07282   145.07282   145.27683    -0.00000    -0.00000    -0.00000
  Kinetic   885.13456   881.42540   876.62655    -0.43313    -0.95423    -1.72396
  Fock        0.00000     0.00000     0.00000     0.00000     0.00000     0.00000
  -------------------------------------------------------------------------------------
  Total      -0.02018    -0.02018     0.01154     0.00000     0.00000     0.00000
  in kB      -0.53385    -0.53385     0.30512     0.00000     0.00000     0.00000
  external pressure =       -0.25 kB  Pullay stress =        0.00 kB


 VOLUME and BASIS-vectors are now :
 -----------------------------------------------------------------------------
  energy-cutoff  :      700.00
  volume of cell :       60.57
      direct lattice vectors                 reciprocal lattice vectors
     4.553195827  0.000000000  0.000000000     0.219625959 -0.000000000  0.000000000
     0.000000000  4.553195827  0.000000000    -0.000000000  0.219625959  0.000000000
     0.000000000  0.000000000  2.921711083     0.000000000  0.000000000  0.342265190

  length of vectors
     4.553195827  4.553195827  2.921711083     0.219625959  0.219625959  0.342265190


 FORCES acting on ions
    electron-ion (+dipol)            ewald-force                    non-local-force                 convergence-correction
 -----------------------------------------------------------------------------------------------
   0.129E-11 -.151E-12 -.224E-11   -.284E-13 0.284E-13 0.302E-13   0.302E-23 0.318E-23 0.684E-25   0.862E-13 0.372E-12 -.802E-12
   0.779E-13 0.494E-13 -.116E-12   -.142E-12 -.568E-13 0.305E-13   -.158E-23 0.220E-23 0.773E-25   -.121E-11 -.265E-12 0.678E-12
   -.444E+02 0.444E+02 0.804E-12   0.475E+02 -.475E+02 -.114E-13   -.309E+01 0.309E+01 0.489E-18   0.846E-03 -.846E-03 -.376E-12
   0.444E+02 -.444E+02 -.241E-12   -.475E+02 0.475E+02 -.112E-13   0.309E+01 -.309E+01 -.815E-18   -.846E-03 0.846E-03 -.867E-12
   0.444E+02 0.444E+02 -.843E-06   -.475E+02 -.475E+02 -.141E-13   0.309E+01 0.309E+01 0.585E-18   -.846E-03 -.846E-03 0.317E-12
   -.444E+02 -.444E+02 0.843E-06   0.475E+02 0.475E+02 -.137E-13   -.309E+01 -.309E+01 -.464E-18   0.846E-03 0.846E-03 0.127E-11
 -----------------------------------------------------------------------------------------------
   0.565E-11 -.108E-10 -.290E-11   0.000E+00 -.711E-14 0.102E-13   -.444E-15 0.000E+00 -.204E-18   -.124E-11 0.978E-12 0.215E-12
 
 
 POSITION                                       TOTAL-FORCE (eV/Angst)
 -----------------------------------------------------------------------------------
      2.27660      2.27660      1.46086         0.000000      0.000000      0.000000
      0.00000     -0.00000     -0.00000         0.000000      0.000000      0.000000
      0.89311      3.66009      1.46086        -0.001724      0.001724      0.000000
      3.66009      0.89311      1.46086         0.001724     -0.001724     -0.000000
      1.38349      1.38349     -0.00000         0.001724      0.001724      0.000000
      3.16971      3.16971      0.00000        -0.001724     -0.001724     -0.000000
 -----------------------------------------------------------------------------------
    total drift:                                0.000000     -0.000000     -0.000000


--------------------------------------------------------------------------------------------------------



  FREE ENERGIE OF THE ION-ELECTRON SYSTEM (eV)
  ---------------------------------------------------
  free  energy   TOTEN  =       -58.81258140 eV

  energy  without entropy=      -58.81258140  energy(sigma->0) =      -58.81258140
 
 d Force = 0.7905643E-05[ 0.352E-05, 0.123E-04]  d Energy = 0.2674294E-04-0.188E-04
 d Force =-0.9722746E-01[-0.972E-01,-0.973E-01]  d Ewald  =-0.1905946E+00 0.934E-01


--------------------------------------------------------------------------------------------------------


    POTLOK:  cpu time    0.2783: real time    0.2791


--------------------------------------------------------------------------------------------------------


 Conjugate gradient step on ions:
 trial-energy change:   -0.000027  1 .order   -0.000031   -0.000048   -0.000014
  (g-gl).g = 0.202E-04      g.g   = 0.528E-04  gl.gl    = 0.127E-01
 g(Force)  = 0.139E-04   g(Stress)= 0.388E-04 ortho     = 0.476E-05
 gamma     =   0.00159
 trial     =   0.91657
 opt step  =   1.28307  (harmonic =   1.28307) maximal distance =0.00035786
 next E    =   -58.812589   (d E  =  -0.00003)


--------------------------------------------------------------------------------------------------------


  
 reached required accuracy - stopping structural energy minimisation
     LOOP+:  cpu time   22.9635: real time   23.0413
    4ORBIT:  cpu time    0.0000: real time    0.0000



 total charge

# of ion       s       p       d       tot
------------------------------------------
    1        2.234   6.329   1.780  10.343
    2        2.234   6.329   1.780  10.343
    3        1.559   3.497   0.000   5.056
    4        1.559   3.497   0.000   5.056
    5        1.559   3.497   0.000   5.056
    6        1.559   3.497   0.000   5.056
--------------------------------------------------
tot         10.704  26.645   3.560  40.909



 magnetization (x)

# of ion       s       p       d       tot
------------------------------------------
    1        0.000   0.000  -0.000  -0.000
    2        0.000   0.000  -0.000  -0.000
    3       -0.000   0.000   0.000  -0.000
    4       -0.000   0.000   0.000  -0.000
    5       -0.000   0.000   0.000  -0.000
    6       -0.000   0.000   0.000  -0.000
--------------------------------------------------
tot          0.000   0.000  -0.000  -0.000
 

 total amount of memory used by VASP MPI-rank0    87198. kBytes
=======================================================================

   base      :      30000. kBytes
   nonl-proj :      47262. kBytes
   fftplans  :        371. kBytes
   grid      :       4003. kBytes
   one-center:        186. kBytes
   wavefun   :       5376. kBytes
 
  
  
 General timing and accounting informations for this job:
 ========================================================
  
                  Total CPU time used (sec):      288.909
                            User time (sec):      287.435
                          System time (sec):        1.473
                         Elapsed time (sec):      291.207
  
                   Maximum memory used (kb):      383836.
                   Average memory used (kb):          N/A
  
                          Minor page faults:       106274
                          Major page faults:            0
                 Voluntary context switches:         2931
