
                                 *****************
                                 * O   R   C   A *
                                 *****************

                                            #,                                       
                                            ###                                      
                                            ####                                     
                                            #####                                    
                                            ######                                   
                                           ########,                                 
                                     ,,################,,,,,                         
                               ,,#################################,,                 
                          ,,##########################################,,             
                       ,#########################################, ''#####,          
                    ,#############################################,,   '####,        
                  ,##################################################,,,,####,       
                ,###########''''           ''''###############################       
              ,#####''   ,,,,##########,,,,          '''####'''          '####       
            ,##' ,,,,###########################,,,                        '##       
           ' ,,###''''                  '''############,,,                           
         ,,##''                                '''############,,,,        ,,,,,,###''
      ,#''                                            '''#######################'''  
     '                                                          ''''####''''         
             ,#######,   #######,   ,#######,      ##                                
            ,#'     '#,  ##    ##  ,#'     '#,    #''#        ######   ,####,        
            ##       ##  ##   ,#'  ##            #'  '#       #        #'  '#        
            ##       ##  #######   ##           ,######,      #####,   #    #        
            '#,     ,#'  ##    ##  '#,     ,#' ,#      #,         ##   #,  ,#        
             '#######'   ##     ##  '#######'  #'      '#     #####' # '####'        



                  #######################################################
                  #                        -***-                        #
                  #          Department of theory and spectroscopy      #
                  #    Directorship and core code : Frank Neese         #
                  #        Max Planck Institute fuer Kohlenforschung    #
                  #                Kaiser Wilhelm Platz 1               #
                  #                 D-45470 Muelheim/Ruhr               #
                  #                      Germany                        #
                  #                                                     #
                  #                  All rights reserved                #
                  #                        -***-                        #
                  #######################################################


                         Program Version 5.0.1 -  RELEASE  -


 With contributions from (in alphabetic order):
   Daniel Aravena         : Magnetic Suceptibility
   Michael Atanasov       : Ab Initio Ligand Field Theory (pilot matlab implementation)
   Alexander A. Auer      : GIAO ZORA, VPT2 properties, NMR spectrum
   Ute Becker             : Parallelization
   Giovanni Bistoni       : ED, misc. LED, open-shell LED, HFLD
   Martin Brehm           : Molecular dynamics
   Dmytro Bykov           : SCF Hessian
   Vijay G. Chilkuri      : MRCI spin determinant printing, contributions to CSF-ICE
   Dipayan Datta          : RHF DLPNO-CCSD density
   Achintya Kumar Dutta   : EOM-CC, STEOM-CC
   Dmitry Ganyushin       : Spin-Orbit,Spin-Spin,Magnetic field MRCI
   Miquel Garcia          : C-PCM and meta-GGA Hessian, CC/C-PCM, Gaussian charge scheme
   Yang Guo               : DLPNO-NEVPT2, F12-NEVPT2, CIM, IAO-localization
   Andreas Hansen         : Spin unrestricted coupled pair/coupled cluster methods
   Benjamin Helmich-Paris : MC-RPA, TRAH-SCF, COSX integrals
   Lee Huntington         : MR-EOM, pCC
   Robert Izsak           : Overlap fitted RIJCOSX, COSX-SCS-MP3, EOM
   Marcus Kettner         : VPT2
   Christian Kollmar      : KDIIS, OOCD, Brueckner-CCSD(T), CCSD density, CASPT2, CASPT2-K
   Simone Kossmann        : Meta GGA functionals, TD-DFT gradient, OOMP2, MP2 Hessian
   Martin Krupicka        : Initial AUTO-CI
   Lucas Lang             : DCDCAS
   Marvin Lechner         : AUTO-CI (C++ implementation), FIC-MRCC
   Dagmar Lenk            : GEPOL surface, SMD
   Dimitrios Liakos       : Extrapolation schemes; Compound Job, initial MDCI parallelization
   Dimitrios Manganas     : Further ROCIS development; embedding schemes
   Dimitrios Pantazis     : SARC Basis sets
   Anastasios Papadopoulos: AUTO-CI, single reference methods and gradients
   Taras Petrenko         : DFT Hessian,TD-DFT gradient, ASA, ECA, R-Raman, ABS, FL, XAS/XES, NRVS
   Peter Pinski           : DLPNO-MP2, DLPNO-MP2 Gradient
   Christoph Reimann      : Effective Core Potentials
   Marius Retegan         : Local ZFS, SOC
   Christoph Riplinger    : Optimizer, TS searches, QM/MM, DLPNO-CCSD(T), (RO)-DLPNO pert. Triples
   Tobias Risthaus        : Range-separated hybrids, TD-DFT gradient, RPA, STAB
   Michael Roemelt        : Original ROCIS implementation
   Masaaki Saitow         : Open-shell DLPNO-CCSD energy and density
   Barbara Sandhoefer     : DKH picture change effects
   Avijit Sen             : IP-ROCIS
   Kantharuban Sivalingam : CASSCF convergence, NEVPT2, FIC-MRCI
   Bernardo de Souza      : ESD, SOC TD-DFT
   Georgi Stoychev        : AutoAux, RI-MP2 NMR, DLPNO-MP2 response
   Willem Van den Heuvel  : Paramagnetic NMR
   Boris Wezisla          : Elementary symmetry handling
   Frank Wennmohs         : Technical directorship


 We gratefully acknowledge several colleagues who have allowed us to
 interface, adapt or use parts of their codes:
   Stefan Grimme, W. Hujo, H. Kruse, P. Pracht,  : VdW corrections, initial TS optimization,
                  C. Bannwarth, S. Ehlert          DFT functionals, gCP, sTDA/sTD-DF
   Ed Valeev, F. Pavosevic, A. Kumar             : LibInt (2-el integral package), F12 methods
   Garnet Chan, S. Sharma, J. Yang, R. Olivares  : DMRG
   Ulf Ekstrom                                   : XCFun DFT Library
   Mihaly Kallay                                 : mrcc  (arbitrary order and MRCC methods)
   Jiri Pittner, Ondrej Demel                    : Mk-CCSD
   Frank Weinhold                                : gennbo (NPA and NBO analysis)
   Christopher J. Cramer and Donald G. Truhlar   : smd solvation model
   Lars Goerigk                                  : TD-DFT with DH, B97 family of functionals
   V. Asgeirsson, H. Jonsson                     : NEB implementation
   FAccTs GmbH                                   : IRC, NEB, NEB-TS, DLPNO-Multilevel, CI-OPT
                                                   MM, QMMM, 2- and 3-layer-ONIOM, Crystal-QMMM,
                                                   LR-CPCM, SF, NACMEs, symmetry and pop. for TD-DFT,
                                                   nearIR, NL-DFT gradient (VV10), updates on ESD,
                                                   ML-optimized integration grids
   S Lehtola, MJT Oliveira, MAL Marques          : LibXC Library
   Liviu Ungur et al                             : ANISO software


 Your calculation uses the libint2 library for the computation of 2-el integrals
 For citations please refer to: http://libint.valeyev.net

 Your ORCA version has been built with support for libXC version: 5.1.0
 For citations please refer to: https://tddft.org/programs/libxc/

 This ORCA versions uses:
   CBLAS   interface :  Fast vector & matrix operations
   LAPACKE interface :  Fast linear algebra routines
   SCALAPACK package :  Parallel linear algebra routines
   Shared memory     :  Shared parallel matrices
   BLAS/LAPACK       :  OpenBLAS 0.3.15  USE64BITINT DYNAMIC_ARCH NO_AFFINITY SkylakeX SINGLE_THREADED
        Core in use  :  SkylakeX
   Copyright (c) 2011-2014, The OpenBLAS Project


SCAN-COORDS
================================================================================

----- Orbital basis set information -----
Your calculation utilizes the basis: def2-SVP
   F. Weigend and R. Ahlrichs, Phys. Chem. Chem. Phys. 7, 3297 (2005).

----- AuxJ basis set information -----
Your calculation utilizes the auxiliary basis: def2/J
   F. Weigend, Phys. Chem. Chem. Phys. 8, 1057 (2006).

================================================================================
                                        WARNINGS
                       Please study these warnings very carefully!
================================================================================

WARNING: Old DensityContainer found on disk!
         Will remove this file - 
         If you want to keep old densities, please start your calculation with a different basename. 

WARNING: The globally-selected AuxJ basis set is optimized for use with ECPs
         Make sure a suitable alternative is explicitly given all heavy elements (Z>36)

INFO   : the flag for use of the SHARK integral package has been found!

================================================================================
                                       INPUT FILE
================================================================================
NAME = orca.inp
|  1> ! NormalSCF SlowConv DIIS
|  2> %maxcore 18000
|  3> %pal
|  4>   nprocs 16
|  5> end
|  6> %pointcharges "orca.bq"
|  7> %method
|  8>   Method DFT
|  9>   Functional PBE
| 10>   RI on
| 11>   RunTyp Energy
| 12> end
| 13> %basis
| 14>   Basis "def2-SVP"
| 15>   Aux "def2/J"
| 16> end
| 17> %scf
| 18>   HFTyp rks
| 19>   Guess MORead
| 20> GuessMode FMatrix
| 21> MOInp "sto.gbw"
| 22>   AutoStart True
| 23>   SCFMode Direct
| 24>   MaxIter 1000
| 25>   sthresh 1e-6
| 26> AutoTRAHIter 120
| 27> end
| 28> %coords
| 29>   CTyp xyz
| 30>   Mult 1
| 31>   Units angs
| 32>   Charge 0
| 33>   coords
| 34> O:                      0.00000000000    0.00000000000    0.00000000000
| 35> Ti                      0.00000000000    1.48054676798   -1.27209143018
| 36> Ti                      0.00000000000   -1.48054676798   -1.27209143018
| 37> Ti                      0.00000000000    0.00000000000    1.98192821856
| 38> O                      -0.00000000000    0.00000000000   -2.54418286035
| 39> O                      -1.27209143018    1.48054676798    1.98192821856
| 40> O                       1.27209143018    1.48054676798    1.98192821856
| 41> O                       1.27209143018   -1.48054676798    1.98192821856
| 42> O                      -1.27209143018   -1.48054676798    1.98192821856
| 43> O                      -1.98192821856    1.48054676798   -1.27209143018
| 44> O                       1.98192821856    1.48054676798   -1.27209143018
| 45> O                       1.98192821856   -1.48054676798   -1.27209143018
| 46> O                      -1.98192821856   -1.48054676798   -1.27209143018
| 47> O                       0.00000000000    2.96109353596    0.00000000000
| 48> O                       0.00000000000   -2.96109353596    0.00000000000
| 49> O                      -3.25401964873    0.00000000000    0.70983678838
| 50> O                       3.25401964873    0.00000000000    0.70983678838
| 51> Ti                     -3.25401964873    0.00000000000   -1.27209143018
| 52> Ti                      3.25401964873    0.00000000000   -1.27209143018
| 53> Ti                      0.00000000000    2.96109353596    1.98192821856
| 54> Ti                      0.00000000000   -2.96109353596    1.98192821856
| 55> O                      -0.00000000000    2.96109353596   -2.54418286035
| 56> O                      -0.00000000000   -2.96109353596   -2.54418286035
| 57> O                      -0.00000000000    0.00000000000    3.96385643712
| 58> Ti                     -3.25401964873    1.48054676798    1.98192821856
| 59> Ti                      3.25401964873    1.48054676798    1.98192821856
| 60> Ti                      3.25401964873   -1.48054676798    1.98192821856
| 61> Ti                     -3.25401964873   -1.48054676798    1.98192821856
| 62> O                      -3.25401964873    2.96109353596    0.70983678838
| 63> O                       3.25401964873    2.96109353596    0.70983678838
| 64> O                       3.25401964873   -2.96109353596    0.70983678838
| 65> O                      -3.25401964873   -2.96109353596    0.70983678838
| 66> Ti                      0.00000000000    0.00000000000   -4.52611107891
| 67> Ti                     -3.25401964873    2.96109353596   -1.27209143018
| 68> Ti                      3.25401964873    2.96109353596   -1.27209143018
| 69> Ti                      3.25401964873   -2.96109353596   -1.27209143018
| 70> Ti                     -3.25401964873   -2.96109353596   -1.27209143018
| 71> O                      -3.25401964873    0.00000000000    3.25401964873
| 72> O                       3.25401964873    0.00000000000    3.25401964873
| 73> O                      -3.25401964873    0.00000000000   -3.25401964873
| 74> O                       3.25401964873    0.00000000000   -3.25401964873
| 75> Ti                      0.00000000000    4.44164030394   -1.27209143018
| 76> Ti                      0.00000000000   -4.44164030394   -1.27209143018
| 77> O                      -4.52611107891    1.48054676798   -1.27209143018
| 78> O                       4.52611107891    1.48054676798   -1.27209143018
| 79> O                       4.52611107891   -1.48054676798   -1.27209143018
| 80> O                      -4.52611107891   -1.48054676798   -1.27209143018
| 81> O                      -1.27209143018    1.48054676798   -4.52611107891
| 82> O                       1.27209143018    1.48054676798   -4.52611107891
| 83> O                       1.27209143018   -1.48054676798   -4.52611107891
| 84> O                      -1.27209143018   -1.48054676798   -4.52611107891
| 85> O                      -0.00000000000    2.96109353596    3.96385643712
| 86> O                      -0.00000000000   -2.96109353596    3.96385643712
| 87> O                      -1.27209143018    4.44164030394    1.98192821856
| 88> O                       1.27209143018    4.44164030394    1.98192821856
| 89> O                       1.27209143018   -4.44164030394    1.98192821856
| 90> O                      -1.27209143018   -4.44164030394    1.98192821856
| 91> O                      -1.98192821856    4.44164030394   -1.27209143018
| 92> O                       1.98192821856    4.44164030394   -1.27209143018
| 93> O                       1.98192821856   -4.44164030394   -1.27209143018
| 94> O                      -1.98192821856   -4.44164030394   -1.27209143018
| 95> Ti                      0.00000000000    2.96109353596   -4.52611107891
| 96> Ti                      0.00000000000   -2.96109353596   -4.52611107891
| 97> Ti                      0.00000000000    1.48054676798    5.23594786729
| 98> Ti                      0.00000000000   -1.48054676798    5.23594786729
| 99> O                      -3.25401964873    2.96109353596    3.25401964873
|100> O                       3.25401964873    2.96109353596    3.25401964873
|101> O                       3.25401964873   -2.96109353596    3.25401964873
|102> O                      -3.25401964873   -2.96109353596    3.25401964873
|103> O                      -3.25401964873    2.96109353596   -3.25401964873
|104> O                       3.25401964873    2.96109353596   -3.25401964873
|105> O                       3.25401964873   -2.96109353596   -3.25401964873
|106> O                      -3.25401964873   -2.96109353596   -3.25401964873
|107> Ti                     -3.25401964873    1.48054676798   -4.52611107891
|108> Ti                      3.25401964873    1.48054676798   -4.52611107891
|109> Ti                      3.25401964873   -1.48054676798   -4.52611107891
|110> Ti                     -3.25401964873   -1.48054676798   -4.52611107891
|111> O                      -1.98192821856    1.48054676798    5.23594786729
|112> O                       1.98192821856    1.48054676798    5.23594786729
|113> O                       1.98192821856   -1.48054676798    5.23594786729
|114> O                      -1.98192821856   -1.48054676798    5.23594786729
|115> O                      -5.23594786729    1.48054676798    1.98192821856
|116> O                       5.23594786729    1.48054676798    1.98192821856
|117> O                       5.23594786729   -1.48054676798    1.98192821856
|118> O                      -5.23594786729   -1.48054676798    1.98192821856
|119> Ti                     -3.25401964873    4.44164030394    1.98192821856
|120> Ti                      3.25401964873    4.44164030394    1.98192821856
|121> Ti                      3.25401964873   -4.44164030394    1.98192821856
|122> Ti                     -3.25401964873   -4.44164030394    1.98192821856
|123> O                       0.00000000000    5.92218707193    0.00000000000
|124> O                       0.00000000000   -5.92218707193    0.00000000000
|125> Ti                     -3.25401964873    0.00000000000    5.23594786729
|126> Ti                      3.25401964873    0.00000000000    5.23594786729
|127> Ti                      0.00000000000    5.92218707193    1.98192821856
|128> Ti                      0.00000000000   -5.92218707193    1.98192821856
|129> O                      -0.00000000000    5.92218707193   -2.54418286035
|130> O                      -0.00000000000   -5.92218707193   -2.54418286035
|131> O                      -4.52611107891    4.44164030394   -1.27209143018
|132> O                       4.52611107891    4.44164030394   -1.27209143018
|133> O                       4.52611107891   -4.44164030394   -1.27209143018
|134> O                      -4.52611107891   -4.44164030394   -1.27209143018
|135> O                      -1.27209143018    4.44164030394   -4.52611107891
|136> O                       1.27209143018    4.44164030394   -4.52611107891
|137> O                       1.27209143018   -4.44164030394   -4.52611107891
|138> O                      -1.27209143018   -4.44164030394   -4.52611107891
|139> O                       0.00000000000    0.00000000000    6.50803929747
|140> O                      -6.50803929747    0.00000000000    0.00000000000
|141> O                       6.50803929747    0.00000000000    0.00000000000
|142> O                       0.00000000000    0.00000000000   -6.50803929747
|143> O                      -3.25401964873    0.00000000000   -5.79820250908
|144> O                       3.25401964873    0.00000000000   -5.79820250908
|145> O                      -3.25401964873    5.92218707193    0.70983678838
|146> O                       3.25401964873    5.92218707193    0.70983678838
|147> O                       3.25401964873   -5.92218707193    0.70983678838
|148> O                      -3.25401964873   -5.92218707193    0.70983678838
|149> Ti                     -6.50803929747    1.48054676798   -1.27209143018
|150> Ti                      6.50803929747    1.48054676798   -1.27209143018
|151> Ti                      6.50803929747   -1.48054676798   -1.27209143018
|152> Ti                     -6.50803929747   -1.48054676798   -1.27209143018
|153> Ti                     -6.50803929747    0.00000000000    1.98192821856
|154> Ti                      6.50803929747    0.00000000000    1.98192821856
|155> Ti                     -3.25401964873    2.96109353596    5.23594786729
|156> Ti                      3.25401964873    2.96109353596    5.23594786729
|157> Ti                      3.25401964873   -2.96109353596    5.23594786729
|158> Ti                     -3.25401964873   -2.96109353596    5.23594786729
|159> Ti                      0.00000000000    4.44164030394    5.23594786729
|160> Ti                      0.00000000000   -4.44164030394    5.23594786729
|161> Ti                     -3.25401964873    5.92218707193   -1.27209143018
|162> Ti                      3.25401964873    5.92218707193   -1.27209143018
|163> Ti                      3.25401964873   -5.92218707193   -1.27209143018
|164> Ti                     -3.25401964873   -5.92218707193   -1.27209143018
|165> O                      -6.50803929747    0.00000000000   -2.54418286035
|166> O                       6.50803929747    0.00000000000   -2.54418286035
|167> O                      -4.52611107891    1.48054676798    5.23594786729
|168> O                       4.52611107891    1.48054676798    5.23594786729
|169> O                       4.52611107891   -1.48054676798    5.23594786729
|170> O                      -4.52611107891   -1.48054676798    5.23594786729
|171> O                      -5.23594786729    1.48054676798   -4.52611107891
|172> O                       5.23594786729    1.48054676798   -4.52611107891
|173> O                       5.23594786729   -1.48054676798   -4.52611107891
|174> O                      -5.23594786729   -1.48054676798   -4.52611107891
|175> O                      -0.00000000000    5.92218707193    3.96385643712
|176> O                      -0.00000000000   -5.92218707193    3.96385643712
|177> Ti                     -3.25401964873    4.44164030394   -4.52611107891
|178> Ti                      3.25401964873    4.44164030394   -4.52611107891
|179> Ti                      3.25401964873   -4.44164030394   -4.52611107891
|180> Ti                     -3.25401964873   -4.44164030394   -4.52611107891
|181> O                      -1.98192821856    4.44164030394    5.23594786729
|182> O                       1.98192821856    4.44164030394    5.23594786729
|183> O                       1.98192821856   -4.44164030394    5.23594786729
|184> O                      -1.98192821856   -4.44164030394    5.23594786729
|185> O                      -5.23594786729    4.44164030394    1.98192821856
|186> O                       5.23594786729    4.44164030394    1.98192821856
|187> O                       5.23594786729   -4.44164030394    1.98192821856
|188> O                      -5.23594786729   -4.44164030394    1.98192821856
|189> O                       0.00000000000    2.96109353596    6.50803929747
|190> O                       0.00000000000   -2.96109353596    6.50803929747
|191> O                      -6.50803929747    2.96109353596    0.00000000000
|192> O                       6.50803929747    2.96109353596    0.00000000000
|193> O                       6.50803929747   -2.96109353596    0.00000000000
|194> O                      -6.50803929747   -2.96109353596    0.00000000000
|195> O                       0.00000000000    2.96109353596   -6.50803929747
|196> O                       0.00000000000   -2.96109353596   -6.50803929747
|197> O                      -3.25401964873    2.96109353596   -5.79820250908
|198> O                       3.25401964873    2.96109353596   -5.79820250908
|199> O                       3.25401964873   -2.96109353596   -5.79820250908
|200> O                      -3.25401964873   -2.96109353596   -5.79820250908
|201> Ti                     -6.50803929747    2.96109353596    1.98192821856
|202> Ti                      6.50803929747    2.96109353596    1.98192821856
|203> Ti                      6.50803929747   -2.96109353596    1.98192821856
|204> Ti                     -6.50803929747   -2.96109353596    1.98192821856
|205> Ti                      0.00000000000    5.92218707193   -4.52611107891
|206> Ti                      0.00000000000   -5.92218707193   -4.52611107891
|207> O                      -3.25401964873    5.92218707193    3.25401964873
|208> O                       3.25401964873    5.92218707193    3.25401964873
|209> O                       3.25401964873   -5.92218707193    3.25401964873
|210> O                      -3.25401964873   -5.92218707193    3.25401964873
|211> O                      -3.25401964873    5.92218707193   -3.25401964873
|212> O                       3.25401964873    5.92218707193   -3.25401964873
|213> O                       3.25401964873   -5.92218707193   -3.25401964873
|214> O                      -3.25401964873   -5.92218707193   -3.25401964873
|215> Ti                      0.00000000000    7.40273383991   -1.27209143018
|216> Ti                      0.00000000000   -7.40273383991   -1.27209143018
|217> O                      -6.50803929747    2.96109353596   -2.54418286035
|218> O                       6.50803929747    2.96109353596   -2.54418286035
|219> O                       6.50803929747   -2.96109353596   -2.54418286035
|220> O                      -6.50803929747   -2.96109353596   -2.54418286035
|221> O                      -6.50803929747    0.00000000000    3.96385643712
|222> O                       6.50803929747    0.00000000000    3.96385643712
|223> O                      -1.27209143018    7.40273383991    1.98192821856
|224> O                       1.27209143018    7.40273383991    1.98192821856
|225> O                       1.27209143018   -7.40273383991    1.98192821856
|226> O                      -1.27209143018   -7.40273383991    1.98192821856
|227> O                      -1.98192821856    7.40273383991   -1.27209143018
|228> O                       1.98192821856    7.40273383991   -1.27209143018
|229> O                       1.98192821856   -7.40273383991   -1.27209143018
|230> O                      -1.98192821856   -7.40273383991   -1.27209143018
|231> Ti                      0.00000000000    1.48054676798   -7.78013072764
|232> Ti                      0.00000000000   -1.48054676798   -7.78013072764
|233> Ti                     -6.50803929747    0.00000000000   -4.52611107891
|234> Ti                      6.50803929747    0.00000000000   -4.52611107891
|235> Ti                     -6.50803929747    4.44164030394   -1.27209143018
|236> Ti                      6.50803929747    4.44164030394   -1.27209143018
|237> Ti                      6.50803929747   -4.44164030394   -1.27209143018
|238> Ti                     -6.50803929747   -4.44164030394   -1.27209143018
|239> O                      -7.78013072764    1.48054676798    1.98192821856
|240> O                       7.78013072764    1.48054676798    1.98192821856
|241> O                       7.78013072764   -1.48054676798    1.98192821856
|242> O                      -7.78013072764   -1.48054676798    1.98192821856
|243> O                      -0.00000000000    0.00000000000   -9.05222215782
|244> Ti>    4.00000000000   -3.25401964873    7.40273383991    1.98192821856
|245> NewECP
|246> N_core 0
|247>   lmax f
|248>   s 2
|249>    1      0.860000       9.191690  2
|250>    2      0.172000       0.008301  2
|251>   p 2
|252>    1      0.860000      17.997720  2
|253>    2      0.172000      -0.032600  2
|254>   d 2
|255>    1      1.600000      -9.504310  2
|256>    2      0.320000      -0.151370  2
|257>   f 1
|258>    1      1.000000000    0.000000000 2
|259> end
|260> Ti>    4.00000000000    3.25401964873    7.40273383991    1.98192821856
|261> NewECP
|262> N_core 0
|263>   lmax f
|264>   s 2
|265>    1      0.860000       9.191690  2
|266>    2      0.172000       0.008301  2
|267>   p 2
|268>    1      0.860000      17.997720  2
|269>    2      0.172000      -0.032600  2
|270>   d 2
|271>    1      1.600000      -9.504310  2
|272>    2      0.320000      -0.151370  2
|273>   f 1
|274>    1      1.000000000    0.000000000 2
|275> end
|276> Ti>    4.00000000000    3.25401964873   -7.40273383991    1.98192821856
|277> NewECP
|278> N_core 0
|279>   lmax f
|280>   s 2
|281>    1      0.860000       9.191690  2
|282>    2      0.172000       0.008301  2
|283>   p 2
|284>    1      0.860000      17.997720  2
|285>    2      0.172000      -0.032600  2
|286>   d 2
|287>    1      1.600000      -9.504310  2
|288>    2      0.320000      -0.151370  2
|289>   f 1
|290>    1      1.000000000    0.000000000 2
|291> end
|292> Ti>    4.00000000000   -3.25401964873   -7.40273383991    1.98192821856
|293> NewECP
|294> N_core 0
|295>   lmax f
|296>   s 2
|297>    1      0.860000       9.191690  2
|298>    2      0.172000       0.008301  2
|299>   p 2
|300>    1      0.860000      17.997720  2
|301>    2      0.172000      -0.032600  2
|302>   d 2
|303>    1      1.600000      -9.504310  2
|304>    2      0.320000      -0.151370  2
|305>   f 1
|306>    1      1.000000000    0.000000000 2
|307> end
|308> Ti>    4.00000000000   -3.25401964873    0.00000000000   -7.78013072764
|309> NewECP
|310> N_core 0
|311>   lmax f
|312>   s 2
|313>    1      0.860000       9.191690  2
|314>    2      0.172000       0.008301  2
|315>   p 2
|316>    1      0.860000      17.997720  2
|317>    2      0.172000      -0.032600  2
|318>   d 2
|319>    1      1.600000      -9.504310  2
|320>    2      0.320000      -0.151370  2
|321>   f 1
|322>    1      1.000000000    0.000000000 2
|323> end
|324> Ti>    4.00000000000    3.25401964873    0.00000000000   -7.78013072764
|325> NewECP
|326> N_core 0
|327>   lmax f
|328>   s 2
|329>    1      0.860000       9.191690  2
|330>    2      0.172000       0.008301  2
|331>   p 2
|332>    1      0.860000      17.997720  2
|333>    2      0.172000      -0.032600  2
|334>   d 2
|335>    1      1.600000      -9.504310  2
|336>    2      0.320000      -0.151370  2
|337>   f 1
|338>    1      1.000000000    0.000000000 2
|339> end
|340> Ti>    4.00000000000   -6.50803929747    2.96109353596   -4.52611107891
|341> NewECP
|342> N_core 0
|343>   lmax f
|344>   s 2
|345>    1      0.860000       9.191690  2
|346>    2      0.172000       0.008301  2
|347>   p 2
|348>    1      0.860000      17.997720  2
|349>    2      0.172000      -0.032600  2
|350>   d 2
|351>    1      1.600000      -9.504310  2
|352>    2      0.320000      -0.151370  2
|353>   f 1
|354>    1      1.000000000    0.000000000 2
|355> end
|356> Ti>    4.00000000000    6.50803929747    2.96109353596   -4.52611107891
|357> NewECP
|358> N_core 0
|359>   lmax f
|360>   s 2
|361>    1      0.860000       9.191690  2
|362>    2      0.172000       0.008301  2
|363>   p 2
|364>    1      0.860000      17.997720  2
|365>    2      0.172000      -0.032600  2
|366>   d 2
|367>    1      1.600000      -9.504310  2
|368>    2      0.320000      -0.151370  2
|369>   f 1
|370>    1      1.000000000    0.000000000 2
|371> end
|372> Ti>    4.00000000000    6.50803929747   -2.96109353596   -4.52611107891
|373> NewECP
|374> N_core 0
|375>   lmax f
|376>   s 2
|377>    1      0.860000       9.191690  2
|378>    2      0.172000       0.008301  2
|379>   p 2
|380>    1      0.860000      17.997720  2
|381>    2      0.172000      -0.032600  2
|382>   d 2
|383>    1      1.600000      -9.504310  2
|384>    2      0.320000      -0.151370  2
|385>   f 1
|386>    1      1.000000000    0.000000000 2
|387> end
|388> Ti>    4.00000000000   -6.50803929747   -2.96109353596   -4.52611107891
|389> NewECP
|390> N_core 0
|391>   lmax f
|392>   s 2
|393>    1      0.860000       9.191690  2
|394>    2      0.172000       0.008301  2
|395>   p 2
|396>    1      0.860000      17.997720  2
|397>    2      0.172000      -0.032600  2
|398>   d 2
|399>    1      1.600000      -9.504310  2
|400>    2      0.320000      -0.151370  2
|401>   f 1
|402>    1      1.000000000    0.000000000 2
|403> end
|404> Ti>    4.00000000000   -6.50803929747    1.48054676798    5.23594786729
|405> NewECP
|406> N_core 0
|407>   lmax f
|408>   s 2
|409>    1      0.860000       9.191690  2
|410>    2      0.172000       0.008301  2
|411>   p 2
|412>    1      0.860000      17.997720  2
|413>    2      0.172000      -0.032600  2
|414>   d 2
|415>    1      1.600000      -9.504310  2
|416>    2      0.320000      -0.151370  2
|417>   f 1
|418>    1      1.000000000    0.000000000 2
|419> end
|420> Ti>    4.00000000000    6.50803929747    1.48054676798    5.23594786729
|421> NewECP
|422> N_core 0
|423>   lmax f
|424>   s 2
|425>    1      0.860000       9.191690  2
|426>    2      0.172000       0.008301  2
|427>   p 2
|428>    1      0.860000      17.997720  2
|429>    2      0.172000      -0.032600  2
|430>   d 2
|431>    1      1.600000      -9.504310  2
|432>    2      0.320000      -0.151370  2
|433>   f 1
|434>    1      1.000000000    0.000000000 2
|435> end
|436> Ti>    4.00000000000    6.50803929747   -1.48054676798    5.23594786729
|437> NewECP
|438> N_core 0
|439>   lmax f
|440>   s 2
|441>    1      0.860000       9.191690  2
|442>    2      0.172000       0.008301  2
|443>   p 2
|444>    1      0.860000      17.997720  2
|445>    2      0.172000      -0.032600  2
|446>   d 2
|447>    1      1.600000      -9.504310  2
|448>    2      0.320000      -0.151370  2
|449>   f 1
|450>    1      1.000000000    0.000000000 2
|451> end
|452> Ti>    4.00000000000   -6.50803929747   -1.48054676798    5.23594786729
|453> NewECP
|454> N_core 0
|455>   lmax f
|456>   s 2
|457>    1      0.860000       9.191690  2
|458>    2      0.172000       0.008301  2
|459>   p 2
|460>    1      0.860000      17.997720  2
|461>    2      0.172000      -0.032600  2
|462>   d 2
|463>    1      1.600000      -9.504310  2
|464>    2      0.320000      -0.151370  2
|465>   f 1
|466>    1      1.000000000    0.000000000 2
|467> end
|468> Ti>    4.00000000000    0.00000000000    0.00000000000    8.48996751602
|469> NewECP
|470> N_core 0
|471>   lmax f
|472>   s 2
|473>    1      0.860000       9.191690  2
|474>    2      0.172000       0.008301  2
|475>   p 2
|476>    1      0.860000      17.997720  2
|477>    2      0.172000      -0.032600  2
|478>   d 2
|479>    1      1.600000      -9.504310  2
|480>    2      0.320000      -0.151370  2
|481>   f 1
|482>    1      1.000000000    0.000000000 2
|483> end
|484> Ti>    4.00000000000   -3.25401964873    5.92218707193    5.23594786729
|485> NewECP
|486> N_core 0
|487>   lmax f
|488>   s 2
|489>    1      0.860000       9.191690  2
|490>    2      0.172000       0.008301  2
|491>   p 2
|492>    1      0.860000      17.997720  2
|493>    2      0.172000      -0.032600  2
|494>   d 2
|495>    1      1.600000      -9.504310  2
|496>    2      0.320000      -0.151370  2
|497>   f 1
|498>    1      1.000000000    0.000000000 2
|499> end
|500> Ti>    4.00000000000    3.25401964873    5.92218707193    5.23594786729
|501> NewECP
|502> N_core 0
|503>   lmax f
|504>   s 2
|505>    1      0.860000       9.191690  2
|506>    2      0.172000       0.008301  2
|507>   p 2
|508>    1      0.860000      17.997720  2
|509>    2      0.172000      -0.032600  2
|510>   d 2
|511>    1      1.600000      -9.504310  2
|512>    2      0.320000      -0.151370  2
|513>   f 1
|514>    1      1.000000000    0.000000000 2
|515> end
|516> Ti>    4.00000000000    3.25401964873   -5.92218707193    5.23594786729
|517> NewECP
|518> N_core 0
|519>   lmax f
|520>   s 2
|521>    1      0.860000       9.191690  2
|522>    2      0.172000       0.008301  2
|523>   p 2
|524>    1      0.860000      17.997720  2
|525>    2      0.172000      -0.032600  2
|526>   d 2
|527>    1      1.600000      -9.504310  2
|528>    2      0.320000      -0.151370  2
|529>   f 1
|530>    1      1.000000000    0.000000000 2
|531> end
|532> Ti>    4.00000000000   -3.25401964873   -5.92218707193    5.23594786729
|533> NewECP
|534> N_core 0
|535>   lmax f
|536>   s 2
|537>    1      0.860000       9.191690  2
|538>    2      0.172000       0.008301  2
|539>   p 2
|540>    1      0.860000      17.997720  2
|541>    2      0.172000      -0.032600  2
|542>   d 2
|543>    1      1.600000      -9.504310  2
|544>    2      0.320000      -0.151370  2
|545>   f 1
|546>    1      1.000000000    0.000000000 2
|547> end
|548> Ti>    4.00000000000   -3.25401964873    2.96109353596   -7.78013072764
|549> NewECP
|550> N_core 0
|551>   lmax f
|552>   s 2
|553>    1      0.860000       9.191690  2
|554>    2      0.172000       0.008301  2
|555>   p 2
|556>    1      0.860000      17.997720  2
|557>    2      0.172000      -0.032600  2
|558>   d 2
|559>    1      1.600000      -9.504310  2
|560>    2      0.320000      -0.151370  2
|561>   f 1
|562>    1      1.000000000    0.000000000 2
|563> end
|564> Ti>    4.00000000000    3.25401964873    2.96109353596   -7.78013072764
|565> NewECP
|566> N_core 0
|567>   lmax f
|568>   s 2
|569>    1      0.860000       9.191690  2
|570>    2      0.172000       0.008301  2
|571>   p 2
|572>    1      0.860000      17.997720  2
|573>    2      0.172000      -0.032600  2
|574>   d 2
|575>    1      1.600000      -9.504310  2
|576>    2      0.320000      -0.151370  2
|577>   f 1
|578>    1      1.000000000    0.000000000 2
|579> end
|580> Ti>    4.00000000000    3.25401964873   -2.96109353596   -7.78013072764
|581> NewECP
|582> N_core 0
|583>   lmax f
|584>   s 2
|585>    1      0.860000       9.191690  2
|586>    2      0.172000       0.008301  2
|587>   p 2
|588>    1      0.860000      17.997720  2
|589>    2      0.172000      -0.032600  2
|590>   d 2
|591>    1      1.600000      -9.504310  2
|592>    2      0.320000      -0.151370  2
|593>   f 1
|594>    1      1.000000000    0.000000000 2
|595> end
|596> Ti>    4.00000000000   -3.25401964873   -2.96109353596   -7.78013072764
|597> NewECP
|598> N_core 0
|599>   lmax f
|600>   s 2
|601>    1      0.860000       9.191690  2
|602>    2      0.172000       0.008301  2
|603>   p 2
|604>    1      0.860000      17.997720  2
|605>    2      0.172000      -0.032600  2
|606>   d 2
|607>    1      1.600000      -9.504310  2
|608>    2      0.320000      -0.151370  2
|609>   f 1
|610>    1      1.000000000    0.000000000 2
|611> end
|612> Ti>    4.00000000000    0.00000000000    4.44164030394   -7.78013072764
|613> NewECP
|614> N_core 0
|615>   lmax f
|616>   s 2
|617>    1      0.860000       9.191690  2
|618>    2      0.172000       0.008301  2
|619>   p 2
|620>    1      0.860000      17.997720  2
|621>    2      0.172000      -0.032600  2
|622>   d 2
|623>    1      1.600000      -9.504310  2
|624>    2      0.320000      -0.151370  2
|625>   f 1
|626>    1      1.000000000    0.000000000 2
|627> end
|628> Ti>    4.00000000000    0.00000000000   -4.44164030394   -7.78013072764
|629> NewECP
|630> N_core 0
|631>   lmax f
|632>   s 2
|633>    1      0.860000       9.191690  2
|634>    2      0.172000       0.008301  2
|635>   p 2
|636>    1      0.860000      17.997720  2
|637>    2      0.172000      -0.032600  2
|638>   d 2
|639>    1      1.600000      -9.504310  2
|640>    2      0.320000      -0.151370  2
|641>   f 1
|642>    1      1.000000000    0.000000000 2
|643> end
|644> Ti>    4.00000000000    0.00000000000    2.96109353596    8.48996751602
|645> NewECP
|646> N_core 0
|647>   lmax f
|648>   s 2
|649>    1      0.860000       9.191690  2
|650>    2      0.172000       0.008301  2
|651>   p 2
|652>    1      0.860000      17.997720  2
|653>    2      0.172000      -0.032600  2
|654>   d 2
|655>    1      1.600000      -9.504310  2
|656>    2      0.320000      -0.151370  2
|657>   f 1
|658>    1      1.000000000    0.000000000 2
|659> end
|660> Ti>    4.00000000000    0.00000000000   -2.96109353596    8.48996751602
|661> NewECP
|662> N_core 0
|663>   lmax f
|664>   s 2
|665>    1      0.860000       9.191690  2
|666>    2      0.172000       0.008301  2
|667>   p 2
|668>    1      0.860000      17.997720  2
|669>    2      0.172000      -0.032600  2
|670>   d 2
|671>    1      1.600000      -9.504310  2
|672>    2      0.320000      -0.151370  2
|673>   f 1
|674>    1      1.000000000    0.000000000 2
|675> end
|676> Ti>    4.00000000000   -6.50803929747    5.92218707193    1.98192821856
|677> NewECP
|678> N_core 0
|679>   lmax f
|680>   s 2
|681>    1      0.860000       9.191690  2
|682>    2      0.172000       0.008301  2
|683>   p 2
|684>    1      0.860000      17.997720  2
|685>    2      0.172000      -0.032600  2
|686>   d 2
|687>    1      1.600000      -9.504310  2
|688>    2      0.320000      -0.151370  2
|689>   f 1
|690>    1      1.000000000    0.000000000 2
|691> end
|692> Ti>    4.00000000000    6.50803929747    5.92218707193    1.98192821856
|693> NewECP
|694> N_core 0
|695>   lmax f
|696>   s 2
|697>    1      0.860000       9.191690  2
|698>    2      0.172000       0.008301  2
|699>   p 2
|700>    1      0.860000      17.997720  2
|701>    2      0.172000      -0.032600  2
|702>   d 2
|703>    1      1.600000      -9.504310  2
|704>    2      0.320000      -0.151370  2
|705>   f 1
|706>    1      1.000000000    0.000000000 2
|707> end
|708> Ti>    4.00000000000    6.50803929747   -5.92218707193    1.98192821856
|709> NewECP
|710> N_core 0
|711>   lmax f
|712>   s 2
|713>    1      0.860000       9.191690  2
|714>    2      0.172000       0.008301  2
|715>   p 2
|716>    1      0.860000      17.997720  2
|717>    2      0.172000      -0.032600  2
|718>   d 2
|719>    1      1.600000      -9.504310  2
|720>    2      0.320000      -0.151370  2
|721>   f 1
|722>    1      1.000000000    0.000000000 2
|723> end
|724> Ti>    4.00000000000   -6.50803929747   -5.92218707193    1.98192821856
|725> NewECP
|726> N_core 0
|727>   lmax f
|728>   s 2
|729>    1      0.860000       9.191690  2
|730>    2      0.172000       0.008301  2
|731>   p 2
|732>    1      0.860000      17.997720  2
|733>    2      0.172000      -0.032600  2
|734>   d 2
|735>    1      1.600000      -9.504310  2
|736>    2      0.320000      -0.151370  2
|737>   f 1
|738>    1      1.000000000    0.000000000 2
|739> end
|740> Ti>    4.00000000000    0.00000000000    7.40273383991    5.23594786729
|741> NewECP
|742> N_core 0
|743>   lmax f
|744>   s 2
|745>    1      0.860000       9.191690  2
|746>    2      0.172000       0.008301  2
|747>   p 2
|748>    1      0.860000      17.997720  2
|749>    2      0.172000      -0.032600  2
|750>   d 2
|751>    1      1.600000      -9.504310  2
|752>    2      0.320000      -0.151370  2
|753>   f 1
|754>    1      1.000000000    0.000000000 2
|755> end
|756> Ti>    4.00000000000    0.00000000000   -7.40273383991    5.23594786729
|757> NewECP
|758> N_core 0
|759>   lmax f
|760>   s 2
|761>    1      0.860000       9.191690  2
|762>    2      0.172000       0.008301  2
|763>   p 2
|764>    1      0.860000      17.997720  2
|765>    2      0.172000      -0.032600  2
|766>   d 2
|767>    1      1.600000      -9.504310  2
|768>    2      0.320000      -0.151370  2
|769>   f 1
|770>    1      1.000000000    0.000000000 2
|771> end
|772> Ti>    4.00000000000    0.00000000000    8.88328060789    1.98192821856
|773> NewECP
|774> N_core 0
|775>   lmax f
|776>   s 2
|777>    1      0.860000       9.191690  2
|778>    2      0.172000       0.008301  2
|779>   p 2
|780>    1      0.860000      17.997720  2
|781>    2      0.172000      -0.032600  2
|782>   d 2
|783>    1      1.600000      -9.504310  2
|784>    2      0.320000      -0.151370  2
|785>   f 1
|786>    1      1.000000000    0.000000000 2
|787> end
|788> Ti>    4.00000000000    0.00000000000   -8.88328060789    1.98192821856
|789> NewECP
|790> N_core 0
|791>   lmax f
|792>   s 2
|793>    1      0.860000       9.191690  2
|794>    2      0.172000       0.008301  2
|795>   p 2
|796>    1      0.860000      17.997720  2
|797>    2      0.172000      -0.032600  2
|798>   d 2
|799>    1      1.600000      -9.504310  2
|800>    2      0.320000      -0.151370  2
|801>   f 1
|802>    1      1.000000000    0.000000000 2
|803> end
|804> Ti>    4.00000000000   -3.25401964873    1.48054676798    8.48996751602
|805> NewECP
|806> N_core 0
|807>   lmax f
|808>   s 2
|809>    1      0.860000       9.191690  2
|810>    2      0.172000       0.008301  2
|811>   p 2
|812>    1      0.860000      17.997720  2
|813>    2      0.172000      -0.032600  2
|814>   d 2
|815>    1      1.600000      -9.504310  2
|816>    2      0.320000      -0.151370  2
|817>   f 1
|818>    1      1.000000000    0.000000000 2
|819> end
|820> Ti>    4.00000000000    3.25401964873    1.48054676798    8.48996751602
|821> NewECP
|822> N_core 0
|823>   lmax f
|824>   s 2
|825>    1      0.860000       9.191690  2
|826>    2      0.172000       0.008301  2
|827>   p 2
|828>    1      0.860000      17.997720  2
|829>    2      0.172000      -0.032600  2
|830>   d 2
|831>    1      1.600000      -9.504310  2
|832>    2      0.320000      -0.151370  2
|833>   f 1
|834>    1      1.000000000    0.000000000 2
|835> end
|836> Ti>    4.00000000000    3.25401964873   -1.48054676798    8.48996751602
|837> NewECP
|838> N_core 0
|839>   lmax f
|840>   s 2
|841>    1      0.860000       9.191690  2
|842>    2      0.172000       0.008301  2
|843>   p 2
|844>    1      0.860000      17.997720  2
|845>    2      0.172000      -0.032600  2
|846>   d 2
|847>    1      1.600000      -9.504310  2
|848>    2      0.320000      -0.151370  2
|849>   f 1
|850>    1      1.000000000    0.000000000 2
|851> end
|852> Ti>    4.00000000000   -3.25401964873   -1.48054676798    8.48996751602
|853> NewECP
|854> N_core 0
|855>   lmax f
|856>   s 2
|857>    1      0.860000       9.191690  2
|858>    2      0.172000       0.008301  2
|859>   p 2
|860>    1      0.860000      17.997720  2
|861>    2      0.172000      -0.032600  2
|862>   d 2
|863>    1      1.600000      -9.504310  2
|864>    2      0.320000      -0.151370  2
|865>   f 1
|866>    1      1.000000000    0.000000000 2
|867> end
|868> Ti>    4.00000000000   -3.25401964873    7.40273383991   -4.52611107891
|869> NewECP
|870> N_core 0
|871>   lmax f
|872>   s 2
|873>    1      0.860000       9.191690  2
|874>    2      0.172000       0.008301  2
|875>   p 2
|876>    1      0.860000      17.997720  2
|877>    2      0.172000      -0.032600  2
|878>   d 2
|879>    1      1.600000      -9.504310  2
|880>    2      0.320000      -0.151370  2
|881>   f 1
|882>    1      1.000000000    0.000000000 2
|883> end
|884> Ti>    4.00000000000    3.25401964873    7.40273383991   -4.52611107891
|885> NewECP
|886> N_core 0
|887>   lmax f
|888>   s 2
|889>    1      0.860000       9.191690  2
|890>    2      0.172000       0.008301  2
|891>   p 2
|892>    1      0.860000      17.997720  2
|893>    2      0.172000      -0.032600  2
|894>   d 2
|895>    1      1.600000      -9.504310  2
|896>    2      0.320000      -0.151370  2
|897>   f 1
|898>    1      1.000000000    0.000000000 2
|899> end
|900> Ti>    4.00000000000    3.25401964873   -7.40273383991   -4.52611107891
|901> NewECP
|902> N_core 0
|903>   lmax f
|904>   s 2
|905>    1      0.860000       9.191690  2
|906>    2      0.172000       0.008301  2
|907>   p 2
|908>    1      0.860000      17.997720  2
|909>    2      0.172000      -0.032600  2
|910>   d 2
|911>    1      1.600000      -9.504310  2
|912>    2      0.320000      -0.151370  2
|913>   f 1
|914>    1      1.000000000    0.000000000 2
|915> end
|916> Ti>    4.00000000000   -3.25401964873   -7.40273383991   -4.52611107891
|917> NewECP
|918> N_core 0
|919>   lmax f
|920>   s 2
|921>    1      0.860000       9.191690  2
|922>    2      0.172000       0.008301  2
|923>   p 2
|924>    1      0.860000      17.997720  2
|925>    2      0.172000      -0.032600  2
|926>   d 2
|927>    1      1.600000      -9.504310  2
|928>    2      0.320000      -0.151370  2
|929>   f 1
|930>    1      1.000000000    0.000000000 2
|931> end
|932> Ti>    4.00000000000   -6.50803929747    4.44164030394    5.23594786729
|933> NewECP
|934> N_core 0
|935>   lmax f
|936>   s 2
|937>    1      0.860000       9.191690  2
|938>    2      0.172000       0.008301  2
|939>   p 2
|940>    1      0.860000      17.997720  2
|941>    2      0.172000      -0.032600  2
|942>   d 2
|943>    1      1.600000      -9.504310  2
|944>    2      0.320000      -0.151370  2
|945>   f 1
|946>    1      1.000000000    0.000000000 2
|947> end
|948> Ti>    4.00000000000    6.50803929747    4.44164030394    5.23594786729
|949> NewECP
|950> N_core 0
|951>   lmax f
|952>   s 2
|953>    1      0.860000       9.191690  2
|954>    2      0.172000       0.008301  2
|955>   p 2
|956>    1      0.860000      17.997720  2
|957>    2      0.172000      -0.032600  2
|958>   d 2
|959>    1      1.600000      -9.504310  2
|960>    2      0.320000      -0.151370  2
|961>   f 1
|962>    1      1.000000000    0.000000000 2
|963> end
|964> Ti>    4.00000000000    6.50803929747   -4.44164030394    5.23594786729
|965> NewECP
|966> N_core 0
|967>   lmax f
|968>   s 2
|969>    1      0.860000       9.191690  2
|970>    2      0.172000       0.008301  2
|971>   p 2
|972>    1      0.860000      17.997720  2
|973>    2      0.172000      -0.032600  2
|974>   d 2
|975>    1      1.600000      -9.504310  2
|976>    2      0.320000      -0.151370  2
|977>   f 1
|978>    1      1.000000000    0.000000000 2
|979> end
|980> Ti>    4.00000000000   -6.50803929747   -4.44164030394    5.23594786729
|981> NewECP
|982> N_core 0
|983>   lmax f
|984>   s 2
|985>    1      0.860000       9.191690  2
|986>    2      0.172000       0.008301  2
|987>   p 2
|988>    1      0.860000      17.997720  2
|989>    2      0.172000      -0.032600  2
|990>   d 2
|991>    1      1.600000      -9.504310  2
|992>    2      0.320000      -0.151370  2
|993>   f 1
|994>    1      1.000000000    0.000000000 2
|995> end
|996> Ti>    4.00000000000   -3.25401964873    8.88328060789   -1.27209143018
|997> NewECP
|998> N_core 0
|999>   lmax f
|1000>   s 2
|1001>    1      0.860000       9.191690  2
|1002>    2      0.172000       0.008301  2
|1003>   p 2
|1004>    1      0.860000      17.997720  2
|1005>    2      0.172000      -0.032600  2
|1006>   d 2
|1007>    1      1.600000      -9.504310  2
|1008>    2      0.320000      -0.151370  2
|1009>   f 1
|1010>    1      1.000000000    0.000000000 2
|1011> end
|1012> Ti>    4.00000000000    3.25401964873    8.88328060789   -1.27209143018
|1013> NewECP
|1014> N_core 0
|1015>   lmax f
|1016>   s 2
|1017>    1      0.860000       9.191690  2
|1018>    2      0.172000       0.008301  2
|1019>   p 2
|1020>    1      0.860000      17.997720  2
|1021>    2      0.172000      -0.032600  2
|1022>   d 2
|1023>    1      1.600000      -9.504310  2
|1024>    2      0.320000      -0.151370  2
|1025>   f 1
|1026>    1      1.000000000    0.000000000 2
|1027> end
|1028> Ti>    4.00000000000    3.25401964873   -8.88328060789   -1.27209143018
|1029> NewECP
|1030> N_core 0
|1031>   lmax f
|1032>   s 2
|1033>    1      0.860000       9.191690  2
|1034>    2      0.172000       0.008301  2
|1035>   p 2
|1036>    1      0.860000      17.997720  2
|1037>    2      0.172000      -0.032600  2
|1038>   d 2
|1039>    1      1.600000      -9.504310  2
|1040>    2      0.320000      -0.151370  2
|1041>   f 1
|1042>    1      1.000000000    0.000000000 2
|1043> end
|1044> Ti>    4.00000000000   -3.25401964873   -8.88328060789   -1.27209143018
|1045> NewECP
|1046> N_core 0
|1047>   lmax f
|1048>   s 2
|1049>    1      0.860000       9.191690  2
|1050>    2      0.172000       0.008301  2
|1051>   p 2
|1052>    1      0.860000      17.997720  2
|1053>    2      0.172000      -0.032600  2
|1054>   d 2
|1055>    1      1.600000      -9.504310  2
|1056>    2      0.320000      -0.151370  2
|1057>   f 1
|1058>    1      1.000000000    0.000000000 2
|1059> end
|1060> Ti>    4.00000000000   -9.76205894620    0.00000000000   -1.27209143018
|1061> NewECP
|1062> N_core 0
|1063>   lmax f
|1064>   s 2
|1065>    1      0.860000       9.191690  2
|1066>    2      0.172000       0.008301  2
|1067>   p 2
|1068>    1      0.860000      17.997720  2
|1069>    2      0.172000      -0.032600  2
|1070>   d 2
|1071>    1      1.600000      -9.504310  2
|1072>    2      0.320000      -0.151370  2
|1073>   f 1
|1074>    1      1.000000000    0.000000000 2
|1075> end
|1076> Ti>    4.00000000000    9.76205894620    0.00000000000   -1.27209143018
|1077> NewECP
|1078> N_core 0
|1079>   lmax f
|1080>   s 2
|1081>    1      0.860000       9.191690  2
|1082>    2      0.172000       0.008301  2
|1083>   p 2
|1084>    1      0.860000      17.997720  2
|1085>    2      0.172000      -0.032600  2
|1086>   d 2
|1087>    1      1.600000      -9.504310  2
|1088>    2      0.320000      -0.151370  2
|1089>   f 1
|1090>    1      1.000000000    0.000000000 2
|1091> end
|1092> Ti>    4.00000000000   -6.50803929747    5.92218707193   -4.52611107891
|1093> NewECP
|1094> N_core 0
|1095>   lmax f
|1096>   s 2
|1097>    1      0.860000       9.191690  2
|1098>    2      0.172000       0.008301  2
|1099>   p 2
|1100>    1      0.860000      17.997720  2
|1101>    2      0.172000      -0.032600  2
|1102>   d 2
|1103>    1      1.600000      -9.504310  2
|1104>    2      0.320000      -0.151370  2
|1105>   f 1
|1106>    1      1.000000000    0.000000000 2
|1107> end
|1108> Ti>    4.00000000000    6.50803929747    5.92218707193   -4.52611107891
|1109> NewECP
|1110> N_core 0
|1111>   lmax f
|1112>   s 2
|1113>    1      0.860000       9.191690  2
|1114>    2      0.172000       0.008301  2
|1115>   p 2
|1116>    1      0.860000      17.997720  2
|1117>    2      0.172000      -0.032600  2
|1118>   d 2
|1119>    1      1.600000      -9.504310  2
|1120>    2      0.320000      -0.151370  2
|1121>   f 1
|1122>    1      1.000000000    0.000000000 2
|1123> end
|1124> Ti>    4.00000000000    6.50803929747   -5.92218707193   -4.52611107891
|1125> NewECP
|1126> N_core 0
|1127>   lmax f
|1128>   s 2
|1129>    1      0.860000       9.191690  2
|1130>    2      0.172000       0.008301  2
|1131>   p 2
|1132>    1      0.860000      17.997720  2
|1133>    2      0.172000      -0.032600  2
|1134>   d 2
|1135>    1      1.600000      -9.504310  2
|1136>    2      0.320000      -0.151370  2
|1137>   f 1
|1138>    1      1.000000000    0.000000000 2
|1139> end
|1140> Ti>    4.00000000000   -6.50803929747   -5.92218707193   -4.52611107891
|1141> NewECP
|1142> N_core 0
|1143>   lmax f
|1144>   s 2
|1145>    1      0.860000       9.191690  2
|1146>    2      0.172000       0.008301  2
|1147>   p 2
|1148>    1      0.860000      17.997720  2
|1149>    2      0.172000      -0.032600  2
|1150>   d 2
|1151>    1      1.600000      -9.504310  2
|1152>    2      0.320000      -0.151370  2
|1153>   f 1
|1154>    1      1.000000000    0.000000000 2
|1155> end
|1156> Ti>    4.00000000000   -6.50803929747    7.40273383991   -1.27209143018
|1157> NewECP
|1158> N_core 0
|1159>   lmax f
|1160>   s 2
|1161>    1      0.860000       9.191690  2
|1162>    2      0.172000       0.008301  2
|1163>   p 2
|1164>    1      0.860000      17.997720  2
|1165>    2      0.172000      -0.032600  2
|1166>   d 2
|1167>    1      1.600000      -9.504310  2
|1168>    2      0.320000      -0.151370  2
|1169>   f 1
|1170>    1      1.000000000    0.000000000 2
|1171> end
|1172> Ti>    4.00000000000    6.50803929747    7.40273383991   -1.27209143018
|1173> NewECP
|1174> N_core 0
|1175>   lmax f
|1176>   s 2
|1177>    1      0.860000       9.191690  2
|1178>    2      0.172000       0.008301  2
|1179>   p 2
|1180>    1      0.860000      17.997720  2
|1181>    2      0.172000      -0.032600  2
|1182>   d 2
|1183>    1      1.600000      -9.504310  2
|1184>    2      0.320000      -0.151370  2
|1185>   f 1
|1186>    1      1.000000000    0.000000000 2
|1187> end
|1188> Ti>    4.00000000000    6.50803929747   -7.40273383991   -1.27209143018
|1189> NewECP
|1190> N_core 0
|1191>   lmax f
|1192>   s 2
|1193>    1      0.860000       9.191690  2
|1194>    2      0.172000       0.008301  2
|1195>   p 2
|1196>    1      0.860000      17.997720  2
|1197>    2      0.172000      -0.032600  2
|1198>   d 2
|1199>    1      1.600000      -9.504310  2
|1200>    2      0.320000      -0.151370  2
|1201>   f 1
|1202>    1      1.000000000    0.000000000 2
|1203> end
|1204> Ti>    4.00000000000   -6.50803929747   -7.40273383991   -1.27209143018
|1205> NewECP
|1206> N_core 0
|1207>   lmax f
|1208>   s 2
|1209>    1      0.860000       9.191690  2
|1210>    2      0.172000       0.008301  2
|1211>   p 2
|1212>    1      0.860000      17.997720  2
|1213>    2      0.172000      -0.032600  2
|1214>   d 2
|1215>    1      1.600000      -9.504310  2
|1216>    2      0.320000      -0.151370  2
|1217>   f 1
|1218>    1      1.000000000    0.000000000 2
|1219> end
|1220> Ti>    4.00000000000    0.00000000000    8.88328060789   -4.52611107891
|1221> NewECP
|1222> N_core 0
|1223>   lmax f
|1224>   s 2
|1225>    1      0.860000       9.191690  2
|1226>    2      0.172000       0.008301  2
|1227>   p 2
|1228>    1      0.860000      17.997720  2
|1229>    2      0.172000      -0.032600  2
|1230>   d 2
|1231>    1      1.600000      -9.504310  2
|1232>    2      0.320000      -0.151370  2
|1233>   f 1
|1234>    1      1.000000000    0.000000000 2
|1235> end
|1236> Ti>    4.00000000000    0.00000000000   -8.88328060789   -4.52611107891
|1237> NewECP
|1238> N_core 0
|1239>   lmax f
|1240>   s 2
|1241>    1      0.860000       9.191690  2
|1242>    2      0.172000       0.008301  2
|1243>   p 2
|1244>    1      0.860000      17.997720  2
|1245>    2      0.172000      -0.032600  2
|1246>   d 2
|1247>    1      1.600000      -9.504310  2
|1248>    2      0.320000      -0.151370  2
|1249>   f 1
|1250>    1      1.000000000    0.000000000 2
|1251> end
|1252> Ti>    4.00000000000   -9.76205894620    1.48054676798    1.98192821856
|1253> NewECP
|1254> N_core 0
|1255>   lmax f
|1256>   s 2
|1257>    1      0.860000       9.191690  2
|1258>    2      0.172000       0.008301  2
|1259>   p 2
|1260>    1      0.860000      17.997720  2
|1261>    2      0.172000      -0.032600  2
|1262>   d 2
|1263>    1      1.600000      -9.504310  2
|1264>    2      0.320000      -0.151370  2
|1265>   f 1
|1266>    1      1.000000000    0.000000000 2
|1267> end
|1268> Ti>    4.00000000000    9.76205894620    1.48054676798    1.98192821856
|1269> NewECP
|1270> N_core 0
|1271>   lmax f
|1272>   s 2
|1273>    1      0.860000       9.191690  2
|1274>    2      0.172000       0.008301  2
|1275>   p 2
|1276>    1      0.860000      17.997720  2
|1277>    2      0.172000      -0.032600  2
|1278>   d 2
|1279>    1      1.600000      -9.504310  2
|1280>    2      0.320000      -0.151370  2
|1281>   f 1
|1282>    1      1.000000000    0.000000000 2
|1283> end
|1284> Ti>    4.00000000000    9.76205894620   -1.48054676798    1.98192821856
|1285> NewECP
|1286> N_core 0
|1287>   lmax f
|1288>   s 2
|1289>    1      0.860000       9.191690  2
|1290>    2      0.172000       0.008301  2
|1291>   p 2
|1292>    1      0.860000      17.997720  2
|1293>    2      0.172000      -0.032600  2
|1294>   d 2
|1295>    1      1.600000      -9.504310  2
|1296>    2      0.320000      -0.151370  2
|1297>   f 1
|1298>    1      1.000000000    0.000000000 2
|1299> end
|1300> Ti>    4.00000000000   -9.76205894620   -1.48054676798    1.98192821856
|1301> NewECP
|1302> N_core 0
|1303>   lmax f
|1304>   s 2
|1305>    1      0.860000       9.191690  2
|1306>    2      0.172000       0.008301  2
|1307>   p 2
|1308>    1      0.860000      17.997720  2
|1309>    2      0.172000      -0.032600  2
|1310>   d 2
|1311>    1      1.600000      -9.504310  2
|1312>    2      0.320000      -0.151370  2
|1313>   f 1
|1314>    1      1.000000000    0.000000000 2
|1315> end
|1316> Ti>    4.00000000000   -3.25401964873    4.44164030394    8.48996751602
|1317> NewECP
|1318> N_core 0
|1319>   lmax f
|1320>   s 2
|1321>    1      0.860000       9.191690  2
|1322>    2      0.172000       0.008301  2
|1323>   p 2
|1324>    1      0.860000      17.997720  2
|1325>    2      0.172000      -0.032600  2
|1326>   d 2
|1327>    1      1.600000      -9.504310  2
|1328>    2      0.320000      -0.151370  2
|1329>   f 1
|1330>    1      1.000000000    0.000000000 2
|1331> end
|1332> Ti>    4.00000000000    3.25401964873    4.44164030394    8.48996751602
|1333> NewECP
|1334> N_core 0
|1335>   lmax f
|1336>   s 2
|1337>    1      0.860000       9.191690  2
|1338>    2      0.172000       0.008301  2
|1339>   p 2
|1340>    1      0.860000      17.997720  2
|1341>    2      0.172000      -0.032600  2
|1342>   d 2
|1343>    1      1.600000      -9.504310  2
|1344>    2      0.320000      -0.151370  2
|1345>   f 1
|1346>    1      1.000000000    0.000000000 2
|1347> end
|1348> Ti>    4.00000000000    3.25401964873   -4.44164030394    8.48996751602
|1349> NewECP
|1350> N_core 0
|1351>   lmax f
|1352>   s 2
|1353>    1      0.860000       9.191690  2
|1354>    2      0.172000       0.008301  2
|1355>   p 2
|1356>    1      0.860000      17.997720  2
|1357>    2      0.172000      -0.032600  2
|1358>   d 2
|1359>    1      1.600000      -9.504310  2
|1360>    2      0.320000      -0.151370  2
|1361>   f 1
|1362>    1      1.000000000    0.000000000 2
|1363> end
|1364> Ti>    4.00000000000   -3.25401964873   -4.44164030394    8.48996751602
|1365> NewECP
|1366> N_core 0
|1367>   lmax f
|1368>   s 2
|1369>    1      0.860000       9.191690  2
|1370>    2      0.172000       0.008301  2
|1371>   p 2
|1372>    1      0.860000      17.997720  2
|1373>    2      0.172000      -0.032600  2
|1374>   d 2
|1375>    1      1.600000      -9.504310  2
|1376>    2      0.320000      -0.151370  2
|1377>   f 1
|1378>    1      1.000000000    0.000000000 2
|1379> end
|1380> Ti>    4.00000000000   -6.50803929747    1.48054676798   -7.78013072764
|1381> NewECP
|1382> N_core 0
|1383>   lmax f
|1384>   s 2
|1385>    1      0.860000       9.191690  2
|1386>    2      0.172000       0.008301  2
|1387>   p 2
|1388>    1      0.860000      17.997720  2
|1389>    2      0.172000      -0.032600  2
|1390>   d 2
|1391>    1      1.600000      -9.504310  2
|1392>    2      0.320000      -0.151370  2
|1393>   f 1
|1394>    1      1.000000000    0.000000000 2
|1395> end
|1396> Ti>    4.00000000000    6.50803929747    1.48054676798   -7.78013072764
|1397> NewECP
|1398> N_core 0
|1399>   lmax f
|1400>   s 2
|1401>    1      0.860000       9.191690  2
|1402>    2      0.172000       0.008301  2
|1403>   p 2
|1404>    1      0.860000      17.997720  2
|1405>    2      0.172000      -0.032600  2
|1406>   d 2
|1407>    1      1.600000      -9.504310  2
|1408>    2      0.320000      -0.151370  2
|1409>   f 1
|1410>    1      1.000000000    0.000000000 2
|1411> end
|1412> Ti>    4.00000000000    6.50803929747   -1.48054676798   -7.78013072764
|1413> NewECP
|1414> N_core 0
|1415>   lmax f
|1416>   s 2
|1417>    1      0.860000       9.191690  2
|1418>    2      0.172000       0.008301  2
|1419>   p 2
|1420>    1      0.860000      17.997720  2
|1421>    2      0.172000      -0.032600  2
|1422>   d 2
|1423>    1      1.600000      -9.504310  2
|1424>    2      0.320000      -0.151370  2
|1425>   f 1
|1426>    1      1.000000000    0.000000000 2
|1427> end
|1428> Ti>    4.00000000000   -6.50803929747   -1.48054676798   -7.78013072764
|1429> NewECP
|1430> N_core 0
|1431>   lmax f
|1432>   s 2
|1433>    1      0.860000       9.191690  2
|1434>    2      0.172000       0.008301  2
|1435>   p 2
|1436>    1      0.860000      17.997720  2
|1437>    2      0.172000      -0.032600  2
|1438>   d 2
|1439>    1      1.600000      -9.504310  2
|1440>    2      0.320000      -0.151370  2
|1441>   f 1
|1442>    1      1.000000000    0.000000000 2
|1443> end
|1444> Ti>    4.00000000000   -9.76205894620    2.96109353596   -1.27209143018
|1445> NewECP
|1446> N_core 0
|1447>   lmax f
|1448>   s 2
|1449>    1      0.860000       9.191690  2
|1450>    2      0.172000       0.008301  2
|1451>   p 2
|1452>    1      0.860000      17.997720  2
|1453>    2      0.172000      -0.032600  2
|1454>   d 2
|1455>    1      1.600000      -9.504310  2
|1456>    2      0.320000      -0.151370  2
|1457>   f 1
|1458>    1      1.000000000    0.000000000 2
|1459> end
|1460> Ti>    4.00000000000    9.76205894620    2.96109353596   -1.27209143018
|1461> NewECP
|1462> N_core 0
|1463>   lmax f
|1464>   s 2
|1465>    1      0.860000       9.191690  2
|1466>    2      0.172000       0.008301  2
|1467>   p 2
|1468>    1      0.860000      17.997720  2
|1469>    2      0.172000      -0.032600  2
|1470>   d 2
|1471>    1      1.600000      -9.504310  2
|1472>    2      0.320000      -0.151370  2
|1473>   f 1
|1474>    1      1.000000000    0.000000000 2
|1475> end
|1476> Ti>    4.00000000000    9.76205894620   -2.96109353596   -1.27209143018
|1477> NewECP
|1478> N_core 0
|1479>   lmax f
|1480>   s 2
|1481>    1      0.860000       9.191690  2
|1482>    2      0.172000       0.008301  2
|1483>   p 2
|1484>    1      0.860000      17.997720  2
|1485>    2      0.172000      -0.032600  2
|1486>   d 2
|1487>    1      1.600000      -9.504310  2
|1488>    2      0.320000      -0.151370  2
|1489>   f 1
|1490>    1      1.000000000    0.000000000 2
|1491> end
|1492> Ti>    4.00000000000   -9.76205894620   -2.96109353596   -1.27209143018
|1493> NewECP
|1494> N_core 0
|1495>   lmax f
|1496>   s 2
|1497>    1      0.860000       9.191690  2
|1498>    2      0.172000       0.008301  2
|1499>   p 2
|1500>    1      0.860000      17.997720  2
|1501>    2      0.172000      -0.032600  2
|1502>   d 2
|1503>    1      1.600000      -9.504310  2
|1504>    2      0.320000      -0.151370  2
|1505>   f 1
|1506>    1      1.000000000    0.000000000 2
|1507> end
|1508> Ti>    4.00000000000   -3.25401964873    5.92218707193   -7.78013072764
|1509> NewECP
|1510> N_core 0
|1511>   lmax f
|1512>   s 2
|1513>    1      0.860000       9.191690  2
|1514>    2      0.172000       0.008301  2
|1515>   p 2
|1516>    1      0.860000      17.997720  2
|1517>    2      0.172000      -0.032600  2
|1518>   d 2
|1519>    1      1.600000      -9.504310  2
|1520>    2      0.320000      -0.151370  2
|1521>   f 1
|1522>    1      1.000000000    0.000000000 2
|1523> end
|1524> Ti>    4.00000000000    3.25401964873    5.92218707193   -7.78013072764
|1525> NewECP
|1526> N_core 0
|1527>   lmax f
|1528>   s 2
|1529>    1      0.860000       9.191690  2
|1530>    2      0.172000       0.008301  2
|1531>   p 2
|1532>    1      0.860000      17.997720  2
|1533>    2      0.172000      -0.032600  2
|1534>   d 2
|1535>    1      1.600000      -9.504310  2
|1536>    2      0.320000      -0.151370  2
|1537>   f 1
|1538>    1      1.000000000    0.000000000 2
|1539> end
|1540> Ti>    4.00000000000    3.25401964873   -5.92218707193   -7.78013072764
|1541> NewECP
|1542> N_core 0
|1543>   lmax f
|1544>   s 2
|1545>    1      0.860000       9.191690  2
|1546>    2      0.172000       0.008301  2
|1547>   p 2
|1548>    1      0.860000      17.997720  2
|1549>    2      0.172000      -0.032600  2
|1550>   d 2
|1551>    1      1.600000      -9.504310  2
|1552>    2      0.320000      -0.151370  2
|1553>   f 1
|1554>    1      1.000000000    0.000000000 2
|1555> end
|1556> Ti>    4.00000000000   -3.25401964873   -5.92218707193   -7.78013072764
|1557> NewECP
|1558> N_core 0
|1559>   lmax f
|1560>   s 2
|1561>    1      0.860000       9.191690  2
|1562>    2      0.172000       0.008301  2
|1563>   p 2
|1564>    1      0.860000      17.997720  2
|1565>    2      0.172000      -0.032600  2
|1566>   d 2
|1567>    1      1.600000      -9.504310  2
|1568>    2      0.320000      -0.151370  2
|1569>   f 1
|1570>    1      1.000000000    0.000000000 2
|1571> end
|1572> Ti>    4.00000000000    0.00000000000    5.92218707193    8.48996751602
|1573> NewECP
|1574> N_core 0
|1575>   lmax f
|1576>   s 2
|1577>    1      0.860000       9.191690  2
|1578>    2      0.172000       0.008301  2
|1579>   p 2
|1580>    1      0.860000      17.997720  2
|1581>    2      0.172000      -0.032600  2
|1582>   d 2
|1583>    1      1.600000      -9.504310  2
|1584>    2      0.320000      -0.151370  2
|1585>   f 1
|1586>    1      1.000000000    0.000000000 2
|1587> end
|1588> Ti>    4.00000000000    0.00000000000   -5.92218707193    8.48996751602
|1589> NewECP
|1590> N_core 0
|1591>   lmax f
|1592>   s 2
|1593>    1      0.860000       9.191690  2
|1594>    2      0.172000       0.008301  2
|1595>   p 2
|1596>    1      0.860000      17.997720  2
|1597>    2      0.172000      -0.032600  2
|1598>   d 2
|1599>    1      1.600000      -9.504310  2
|1600>    2      0.320000      -0.151370  2
|1601>   f 1
|1602>    1      1.000000000    0.000000000 2
|1603> end
|1604> Ti>    4.00000000000    0.00000000000   10.36382737587   -1.27209143018
|1605> NewECP
|1606> N_core 0
|1607>   lmax f
|1608>   s 2
|1609>    1      0.860000       9.191690  2
|1610>    2      0.172000       0.008301  2
|1611>   p 2
|1612>    1      0.860000      17.997720  2
|1613>    2      0.172000      -0.032600  2
|1614>   d 2
|1615>    1      1.600000      -9.504310  2
|1616>    2      0.320000      -0.151370  2
|1617>   f 1
|1618>    1      1.000000000    0.000000000 2
|1619> end
|1620> Ti>    4.00000000000    0.00000000000  -10.36382737587   -1.27209143018
|1621> NewECP
|1622> N_core 0
|1623>   lmax f
|1624>   s 2
|1625>    1      0.860000       9.191690  2
|1626>    2      0.172000       0.008301  2
|1627>   p 2
|1628>    1      0.860000      17.997720  2
|1629>    2      0.172000      -0.032600  2
|1630>   d 2
|1631>    1      1.600000      -9.504310  2
|1632>    2      0.320000      -0.151370  2
|1633>   f 1
|1634>    1      1.000000000    0.000000000 2
|1635> end
|1636> Ti>    4.00000000000   -6.50803929747    0.00000000000    8.48996751602
|1637> NewECP
|1638> N_core 0
|1639>   lmax f
|1640>   s 2
|1641>    1      0.860000       9.191690  2
|1642>    2      0.172000       0.008301  2
|1643>   p 2
|1644>    1      0.860000      17.997720  2
|1645>    2      0.172000      -0.032600  2
|1646>   d 2
|1647>    1      1.600000      -9.504310  2
|1648>    2      0.320000      -0.151370  2
|1649>   f 1
|1650>    1      1.000000000    0.000000000 2
|1651> end
|1652> Ti>    4.00000000000    6.50803929747    0.00000000000    8.48996751602
|1653> NewECP
|1654> N_core 0
|1655>   lmax f
|1656>   s 2
|1657>    1      0.860000       9.191690  2
|1658>    2      0.172000       0.008301  2
|1659>   p 2
|1660>    1      0.860000      17.997720  2
|1661>    2      0.172000      -0.032600  2
|1662>   d 2
|1663>    1      1.600000      -9.504310  2
|1664>    2      0.320000      -0.151370  2
|1665>   f 1
|1666>    1      1.000000000    0.000000000 2
|1667> end
|1668> Ti>    4.00000000000    0.00000000000    7.40273383991   -7.78013072764
|1669> NewECP
|1670> N_core 0
|1671>   lmax f
|1672>   s 2
|1673>    1      0.860000       9.191690  2
|1674>    2      0.172000       0.008301  2
|1675>   p 2
|1676>    1      0.860000      17.997720  2
|1677>    2      0.172000      -0.032600  2
|1678>   d 2
|1679>    1      1.600000      -9.504310  2
|1680>    2      0.320000      -0.151370  2
|1681>   f 1
|1682>    1      1.000000000    0.000000000 2
|1683> end
|1684> Ti>    4.00000000000    0.00000000000   -7.40273383991   -7.78013072764
|1685> NewECP
|1686> N_core 0
|1687>   lmax f
|1688>   s 2
|1689>    1      0.860000       9.191690  2
|1690>    2      0.172000       0.008301  2
|1691>   p 2
|1692>    1      0.860000      17.997720  2
|1693>    2      0.172000      -0.032600  2
|1694>   d 2
|1695>    1      1.600000      -9.504310  2
|1696>    2      0.320000      -0.151370  2
|1697>   f 1
|1698>    1      1.000000000    0.000000000 2
|1699> end
|1700> Ti>    4.00000000000   -3.25401964873    8.88328060789    5.23594786729
|1701> NewECP
|1702> N_core 0
|1703>   lmax f
|1704>   s 2
|1705>    1      0.860000       9.191690  2
|1706>    2      0.172000       0.008301  2
|1707>   p 2
|1708>    1      0.860000      17.997720  2
|1709>    2      0.172000      -0.032600  2
|1710>   d 2
|1711>    1      1.600000      -9.504310  2
|1712>    2      0.320000      -0.151370  2
|1713>   f 1
|1714>    1      1.000000000    0.000000000 2
|1715> end
|1716> Ti>    4.00000000000    3.25401964873    8.88328060789    5.23594786729
|1717> NewECP
|1718> N_core 0
|1719>   lmax f
|1720>   s 2
|1721>    1      0.860000       9.191690  2
|1722>    2      0.172000       0.008301  2
|1723>   p 2
|1724>    1      0.860000      17.997720  2
|1725>    2      0.172000      -0.032600  2
|1726>   d 2
|1727>    1      1.600000      -9.504310  2
|1728>    2      0.320000      -0.151370  2
|1729>   f 1
|1730>    1      1.000000000    0.000000000 2
|1731> end
|1732> Ti>    4.00000000000    3.25401964873   -8.88328060789    5.23594786729
|1733> NewECP
|1734> N_core 0
|1735>   lmax f
|1736>   s 2
|1737>    1      0.860000       9.191690  2
|1738>    2      0.172000       0.008301  2
|1739>   p 2
|1740>    1      0.860000      17.997720  2
|1741>    2      0.172000      -0.032600  2
|1742>   d 2
|1743>    1      1.600000      -9.504310  2
|1744>    2      0.320000      -0.151370  2
|1745>   f 1
|1746>    1      1.000000000    0.000000000 2
|1747> end
|1748> Ti>    4.00000000000   -3.25401964873   -8.88328060789    5.23594786729
|1749> NewECP
|1750> N_core 0
|1751>   lmax f
|1752>   s 2
|1753>    1      0.860000       9.191690  2
|1754>    2      0.172000       0.008301  2
|1755>   p 2
|1756>    1      0.860000      17.997720  2
|1757>    2      0.172000      -0.032600  2
|1758>   d 2
|1759>    1      1.600000      -9.504310  2
|1760>    2      0.320000      -0.151370  2
|1761>   f 1
|1762>    1      1.000000000    0.000000000 2
|1763> end
|1764> Ti>    4.00000000000   -9.76205894620    1.48054676798   -4.52611107891
|1765> NewECP
|1766> N_core 0
|1767>   lmax f
|1768>   s 2
|1769>    1      0.860000       9.191690  2
|1770>    2      0.172000       0.008301  2
|1771>   p 2
|1772>    1      0.860000      17.997720  2
|1773>    2      0.172000      -0.032600  2
|1774>   d 2
|1775>    1      1.600000      -9.504310  2
|1776>    2      0.320000      -0.151370  2
|1777>   f 1
|1778>    1      1.000000000    0.000000000 2
|1779> end
|1780> Ti>    4.00000000000    9.76205894620    1.48054676798   -4.52611107891
|1781> NewECP
|1782> N_core 0
|1783>   lmax f
|1784>   s 2
|1785>    1      0.860000       9.191690  2
|1786>    2      0.172000       0.008301  2
|1787>   p 2
|1788>    1      0.860000      17.997720  2
|1789>    2      0.172000      -0.032600  2
|1790>   d 2
|1791>    1      1.600000      -9.504310  2
|1792>    2      0.320000      -0.151370  2
|1793>   f 1
|1794>    1      1.000000000    0.000000000 2
|1795> end
|1796> Ti>    4.00000000000    9.76205894620   -1.48054676798   -4.52611107891
|1797> NewECP
|1798> N_core 0
|1799>   lmax f
|1800>   s 2
|1801>    1      0.860000       9.191690  2
|1802>    2      0.172000       0.008301  2
|1803>   p 2
|1804>    1      0.860000      17.997720  2
|1805>    2      0.172000      -0.032600  2
|1806>   d 2
|1807>    1      1.600000      -9.504310  2
|1808>    2      0.320000      -0.151370  2
|1809>   f 1
|1810>    1      1.000000000    0.000000000 2
|1811> end
|1812> Ti>    4.00000000000   -9.76205894620   -1.48054676798   -4.52611107891
|1813> NewECP
|1814> N_core 0
|1815>   lmax f
|1816>   s 2
|1817>    1      0.860000       9.191690  2
|1818>    2      0.172000       0.008301  2
|1819>   p 2
|1820>    1      0.860000      17.997720  2
|1821>    2      0.172000      -0.032600  2
|1822>   d 2
|1823>    1      1.600000      -9.504310  2
|1824>    2      0.320000      -0.151370  2
|1825>   f 1
|1826>    1      1.000000000    0.000000000 2
|1827> end
|1828> Ti>    4.00000000000   -9.76205894620    4.44164030394    1.98192821856
|1829> NewECP
|1830> N_core 0
|1831>   lmax f
|1832>   s 2
|1833>    1      0.860000       9.191690  2
|1834>    2      0.172000       0.008301  2
|1835>   p 2
|1836>    1      0.860000      17.997720  2
|1837>    2      0.172000      -0.032600  2
|1838>   d 2
|1839>    1      1.600000      -9.504310  2
|1840>    2      0.320000      -0.151370  2
|1841>   f 1
|1842>    1      1.000000000    0.000000000 2
|1843> end
|1844> Ti>    4.00000000000    9.76205894620    4.44164030394    1.98192821856
|1845> NewECP
|1846> N_core 0
|1847>   lmax f
|1848>   s 2
|1849>    1      0.860000       9.191690  2
|1850>    2      0.172000       0.008301  2
|1851>   p 2
|1852>    1      0.860000      17.997720  2
|1853>    2      0.172000      -0.032600  2
|1854>   d 2
|1855>    1      1.600000      -9.504310  2
|1856>    2      0.320000      -0.151370  2
|1857>   f 1
|1858>    1      1.000000000    0.000000000 2
|1859> end
|1860> Ti>    4.00000000000    9.76205894620   -4.44164030394    1.98192821856
|1861> NewECP
|1862> N_core 0
|1863>   lmax f
|1864>   s 2
|1865>    1      0.860000       9.191690  2
|1866>    2      0.172000       0.008301  2
|1867>   p 2
|1868>    1      0.860000      17.997720  2
|1869>    2      0.172000      -0.032600  2
|1870>   d 2
|1871>    1      1.600000      -9.504310  2
|1872>    2      0.320000      -0.151370  2
|1873>   f 1
|1874>    1      1.000000000    0.000000000 2
|1875> end
|1876> Ti>    4.00000000000   -9.76205894620   -4.44164030394    1.98192821856
|1877> NewECP
|1878> N_core 0
|1879>   lmax f
|1880>   s 2
|1881>    1      0.860000       9.191690  2
|1882>    2      0.172000       0.008301  2
|1883>   p 2
|1884>    1      0.860000      17.997720  2
|1885>    2      0.172000      -0.032600  2
|1886>   d 2
|1887>    1      1.600000      -9.504310  2
|1888>    2      0.320000      -0.151370  2
|1889>   f 1
|1890>    1      1.000000000    0.000000000 2
|1891> end
|1892> Ti>    4.00000000000    0.00000000000    0.00000000000  -11.03415037637
|1893> NewECP
|1894> N_core 0
|1895>   lmax f
|1896>   s 2
|1897>    1      0.860000       9.191690  2
|1898>    2      0.172000       0.008301  2
|1899>   p 2
|1900>    1      0.860000      17.997720  2
|1901>    2      0.172000      -0.032600  2
|1902>   d 2
|1903>    1      1.600000      -9.504310  2
|1904>    2      0.320000      -0.151370  2
|1905>   f 1
|1906>    1      1.000000000    0.000000000 2
|1907> end
|1908> Ti>    4.00000000000   -3.25401964873   10.36382737587    1.98192821856
|1909> NewECP
|1910> N_core 0
|1911>   lmax f
|1912>   s 2
|1913>    1      0.860000       9.191690  2
|1914>    2      0.172000       0.008301  2
|1915>   p 2
|1916>    1      0.860000      17.997720  2
|1917>    2      0.172000      -0.032600  2
|1918>   d 2
|1919>    1      1.600000      -9.504310  2
|1920>    2      0.320000      -0.151370  2
|1921>   f 1
|1922>    1      1.000000000    0.000000000 2
|1923> end
|1924> Ti>    4.00000000000    3.25401964873   10.36382737587    1.98192821856
|1925> NewECP
|1926> N_core 0
|1927>   lmax f
|1928>   s 2
|1929>    1      0.860000       9.191690  2
|1930>    2      0.172000       0.008301  2
|1931>   p 2
|1932>    1      0.860000      17.997720  2
|1933>    2      0.172000      -0.032600  2
|1934>   d 2
|1935>    1      1.600000      -9.504310  2
|1936>    2      0.320000      -0.151370  2
|1937>   f 1
|1938>    1      1.000000000    0.000000000 2
|1939> end
|1940> Ti>    4.00000000000    3.25401964873  -10.36382737587    1.98192821856
|1941> NewECP
|1942> N_core 0
|1943>   lmax f
|1944>   s 2
|1945>    1      0.860000       9.191690  2
|1946>    2      0.172000       0.008301  2
|1947>   p 2
|1948>    1      0.860000      17.997720  2
|1949>    2      0.172000      -0.032600  2
|1950>   d 2
|1951>    1      1.600000      -9.504310  2
|1952>    2      0.320000      -0.151370  2
|1953>   f 1
|1954>    1      1.000000000    0.000000000 2
|1955> end
|1956> Ti>    4.00000000000   -3.25401964873  -10.36382737587    1.98192821856
|1957> NewECP
|1958> N_core 0
|1959>   lmax f
|1960>   s 2
|1961>    1      0.860000       9.191690  2
|1962>    2      0.172000       0.008301  2
|1963>   p 2
|1964>    1      0.860000      17.997720  2
|1965>    2      0.172000      -0.032600  2
|1966>   d 2
|1967>    1      1.600000      -9.504310  2
|1968>    2      0.320000      -0.151370  2
|1969>   f 1
|1970>    1      1.000000000    0.000000000 2
|1971> end
|1972> Ti>    4.00000000000   -6.50803929747    4.44164030394   -7.78013072764
|1973> NewECP
|1974> N_core 0
|1975>   lmax f
|1976>   s 2
|1977>    1      0.860000       9.191690  2
|1978>    2      0.172000       0.008301  2
|1979>   p 2
|1980>    1      0.860000      17.997720  2
[...]
463 Q      0.0000     4.0000     4.0000     0.0000     0.0000     0.0000
464 Q      0.0000     4.0000     4.0000     0.0000     0.0000     0.0000
465 Q      0.0000     4.0000     4.0000     0.0000     0.0000     0.0000
466 Q      0.0000     4.0000     4.0000     0.0000     0.0000     0.0000
467 Q      0.0000     4.0000     4.0000     0.0000     0.0000     0.0000
468 Q      0.0000     4.0000     4.0000     0.0000     0.0000     0.0000
469 Q      0.0000     4.0000     4.0000     0.0000     0.0000     0.0000
470 Q      0.0000     4.0000     4.0000     0.0000     0.0000     0.0000
471 Q      0.0000     4.0000     4.0000     0.0000     0.0000     0.0000
472 Q      0.0000     4.0000     4.0000     0.0000     0.0000     0.0000
473 Q      0.0000     4.0000     4.0000     0.0000     0.0000     0.0000
474 Q      0.0000     4.0000     4.0000     0.0000     0.0000     0.0000
475 Q      0.0000     4.0000     4.0000     0.0000     0.0000     0.0000
476 Q      0.0000     4.0000     4.0000     0.0000     0.0000     0.0000
477 Q      0.0000     4.0000     4.0000     0.0000     0.0000     0.0000
478 Q      0.0000     4.0000     4.0000     0.0000     0.0000     0.0000
479 Q      0.0000     4.0000     4.0000     0.0000     0.0000     0.0000
480 Q      0.0000     4.0000     4.0000     0.0000     0.0000     0.0000
481 Q      0.0000     4.0000     4.0000     0.0000     0.0000     0.0000
482 Q      0.0000     4.0000     4.0000     0.0000     0.0000     0.0000
483 Q      0.0000     4.0000     4.0000     0.0000     0.0000     0.0000
484 Q      0.0000     4.0000     4.0000     0.0000     0.0000     0.0000
485 Q      0.0000     4.0000     4.0000     0.0000     0.0000     0.0000
486 Q      0.0000     4.0000     4.0000     0.0000     0.0000     0.0000
487 Q      0.0000     4.0000     4.0000     0.0000     0.0000     0.0000
488 Q      0.0000     4.0000     4.0000     0.0000     0.0000     0.0000
489 Q      0.0000     4.0000     4.0000     0.0000     0.0000     0.0000
490 Q      0.0000     4.0000     4.0000     0.0000     0.0000     0.0000
491 Q      0.0000     4.0000     4.0000     0.0000     0.0000     0.0000
492 Q      0.0000     4.0000     4.0000     0.0000     0.0000     0.0000
493 Q      0.0000     4.0000     4.0000     0.0000     0.0000     0.0000
494 Q      0.0000     4.0000     4.0000     0.0000     0.0000     0.0000
495 Q      0.0000     4.0000     4.0000     0.0000     0.0000     0.0000
496 Q      0.0000     4.0000     4.0000     0.0000     0.0000     0.0000
497 Q      0.0000     4.0000     4.0000     0.0000     0.0000     0.0000
498 Q      0.0000     4.0000     4.0000     0.0000     0.0000     0.0000
499 Q      0.0000     4.0000     4.0000     0.0000     0.0000     0.0000
500 Q      0.0000     4.0000     4.0000     0.0000     0.0000     0.0000
501 Q      0.0000     4.0000     4.0000     0.0000     0.0000     0.0000
502 Q      0.0000     4.0000     4.0000     0.0000     0.0000     0.0000
503 Q      0.0000     4.0000     4.0000     0.0000     0.0000     0.0000
504 Q      0.0000     4.0000     4.0000     0.0000     0.0000     0.0000
505 Q      0.0000     4.0000     4.0000     0.0000     0.0000     0.0000
506 Q      0.0000     4.0000     4.0000     0.0000     0.0000     0.0000
507 Q      0.0000     4.0000     4.0000     0.0000     0.0000     0.0000
508 Q      0.0000     4.0000     4.0000     0.0000     0.0000     0.0000
509 Q      0.0000     4.0000     4.0000     0.0000     0.0000     0.0000
510 Q      0.0000     4.0000     4.0000     0.0000     0.0000     0.0000
511 Q      0.0000     4.0000     4.0000     0.0000     0.0000     0.0000
512 Q      0.0000     4.0000     4.0000     0.0000     0.0000     0.0000
513 Q      0.0000     4.0000     4.0000     0.0000     0.0000     0.0000
514 Q      0.0000     4.0000     4.0000     0.0000     0.0000     0.0000
515 Q      0.0000     4.0000     4.0000     0.0000     0.0000     0.0000
516 Q      0.0000     4.0000     4.0000     0.0000     0.0000     0.0000
517 Q      0.0000     4.0000     4.0000     0.0000     0.0000     0.0000
518 Q      0.0000     4.0000     4.0000     0.0000     0.0000     0.0000
519 Q      0.0000     4.0000     4.0000     0.0000     0.0000     0.0000
520 Q      0.0000     4.0000     4.0000     0.0000     0.0000     0.0000
521 Q      0.0000     4.0000     4.0000     0.0000     0.0000     0.0000
522 Q      0.0000     4.0000     4.0000     0.0000     0.0000     0.0000
523 Q      0.0000     4.0000     4.0000     0.0000     0.0000     0.0000
524 Q      0.0000     4.0000     4.0000     0.0000     0.0000     0.0000
525 Q      0.0000     4.0000     4.0000     0.0000     0.0000     0.0000
526 Q      0.0000     4.0000     4.0000     0.0000     0.0000     0.0000
527 Q      0.0000     4.0000     4.0000     0.0000     0.0000     0.0000
528 Q      0.0000     4.0000     4.0000     0.0000     0.0000     0.0000
529 Q      0.0000     4.0000     4.0000     0.0000     0.0000     0.0000
530 Q      0.0000     4.0000     4.0000     0.0000     0.0000     0.0000
531 Q      0.0000     4.0000     4.0000     0.0000     0.0000     0.0000
532 Q      0.0000     4.0000     4.0000     0.0000     0.0000     0.0000
533 Q      0.0000     4.0000     4.0000     0.0000     0.0000     0.0000
534 Q      0.0000     4.0000     4.0000     0.0000     0.0000     0.0000
535 Q      0.0000     4.0000     4.0000     0.0000     0.0000     0.0000
536 Q      0.0000     4.0000     4.0000     0.0000     0.0000     0.0000
537 Q      0.0000     4.0000     4.0000     0.0000     0.0000     0.0000
538 Q      0.0000     4.0000     4.0000     0.0000     0.0000     0.0000
539 Q      0.0000     4.0000     4.0000     0.0000     0.0000     0.0000
540 Q      0.0000     4.0000     4.0000     0.0000     0.0000     0.0000
541 Q      0.0000     4.0000     4.0000     0.0000     0.0000     0.0000
542 Q      0.0000     4.0000     4.0000     0.0000     0.0000     0.0000
543 Q      0.0000     4.0000     4.0000     0.0000     0.0000     0.0000
544 Q      0.0000     4.0000     4.0000     0.0000     0.0000     0.0000
545 Q      0.0000     4.0000     4.0000     0.0000     0.0000     0.0000
546 Q      0.0000     4.0000     4.0000     0.0000     0.0000     0.0000
547 Q      0.0000     4.0000     4.0000     0.0000     0.0000     0.0000

  Mayer bond orders larger than 0.100000
B(  1-Ti,  2-Ti) :   0.2658 B(  1-Ti,  3-Ti) :   0.2079 B(  1-Ti,  4-O ) :   0.6747 
B(  1-Ti,  9-O ) :   0.4777 B(  1-Ti, 10-O ) :   0.4776 B(  1-Ti, 13-O ) :   0.6199 
B(  1-Ti, 21-O ) :   0.5526 B(  1-Ti, 41-Ti) :   0.1296 B(  2-Ti,  3-Ti) :   0.2079 
B(  2-Ti,  4-O ) :   0.6747 B(  2-Ti, 11-O ) :   0.4777 B(  2-Ti, 12-O ) :   0.4776 
B(  2-Ti, 14-O ) :   0.6199 B(  2-Ti, 22-O ) :   0.5526 B(  2-Ti, 42-Ti) :   0.1296 
B(  3-Ti,  5-O ) :   0.6782 B(  3-Ti,  6-O ) :   0.6782 B(  3-Ti,  7-O ) :   0.6782 
B(  3-Ti,  8-O ) :   0.6782 B(  3-Ti, 19-Ti) :   0.1341 B(  3-Ti, 20-Ti) :   0.1341 
B(  3-Ti, 23-O ) :   0.4420 B(  4-O , 32-Ti) :   0.6902 B(  5-O , 19-Ti) :   0.7044 
B(  5-O , 24-Ti) :   0.6387 B(  6-O , 19-Ti) :   0.7044 B(  6-O , 25-Ti) :   0.6387 
B(  7-O , 20-Ti) :   0.7044 B(  7-O , 26-Ti) :   0.6387 B(  8-O , 20-Ti) :   0.7044 
B(  8-O , 27-Ti) :   0.6387 B(  9-O , 17-Ti) :   0.6900 B(  9-O , 33-Ti) :   0.7942 
B( 10-O , 18-Ti) :   0.6900 B( 10-O , 34-Ti) :   0.7942 B( 11-O , 18-Ti) :   0.6900 
B( 11-O , 35-Ti) :   0.7942 B( 12-O , 17-Ti) :   0.6900 B( 12-O , 36-Ti) :   0.7942 
B( 13-O , 19-Ti) :   0.5624 B( 13-O , 41-Ti) :   0.8140 B( 14-O , 20-Ti) :   0.5624 
B( 14-O , 42-Ti) :   0.8140 B( 15-O , 17-Ti) :   0.5007 B( 15-O , 24-Ti) :   0.7571 
B( 15-O , 27-Ti) :   0.7571 B( 16-O , 18-Ti) :   0.5007 B( 16-O , 25-Ti) :   0.7571 
B( 16-O , 26-Ti) :   0.7571 B( 17-Ti, 39-O ) :   0.4373 B( 17-Ti, 43-O ) :   0.4868 
B( 17-Ti, 46-O ) :   0.4868 B( 18-Ti, 40-O ) :   0.4373 B( 18-Ti, 44-O ) :   0.4868 
B( 18-Ti, 45-O ) :   0.4868 B( 19-Ti, 51-O ) :   0.4703 B( 19-Ti, 53-O ) :   0.6017 
B( 19-Ti, 54-O ) :   0.6017 B( 19-Ti,141-O ) :  -0.1202 B( 20-Ti, 52-O ) :   0.4704 
B( 20-Ti, 55-O ) :   0.6017 B( 20-Ti, 56-O ) :   0.6017 B( 20-Ti,142-O ) :  -0.1202 
B( 21-O , 41-Ti) :   0.7542 B( 21-O , 61-Ti) :   0.7401 B( 22-O , 42-Ti) :   0.7542 
B( 22-O , 62-Ti) :   0.7401 B( 23-O , 63-Ti) :   0.7764 B( 23-O , 64-Ti) :   0.7764 
B( 24-Ti, 27-Ti) :   0.1057 B( 24-Ti, 28-O ) :   0.7114 B( 24-Ti, 37-O ) :   0.6925 
B( 24-Ti, 65-O ) :   0.6241 B( 24-Ti, 81-O ) :   0.5007 B( 25-Ti, 26-Ti) :   0.1057 
B( 25-Ti, 29-O ) :   0.7114 B( 25-Ti, 38-O ) :   0.6925 B( 25-Ti, 66-O ) :   0.6241 
B( 25-Ti, 82-O ) :   0.5007 B( 26-Ti, 30-O ) :   0.7114 B( 26-Ti, 38-O ) :   0.6925 
B( 26-Ti, 67-O ) :   0.6241 B( 26-Ti, 83-O ) :   0.5007 B( 27-Ti, 31-O ) :   0.7114 
B( 27-Ti, 37-O ) :   0.6925 B( 27-Ti, 68-O ) :   0.6241 B( 27-Ti, 84-O ) :   0.5007 
B( 28-O , 33-Ti) :   0.6501 B( 28-O , 85-Ti) :   0.7546 B( 29-O , 34-Ti) :   0.6500 
B( 29-O , 86-Ti) :   0.7546 B( 30-O , 35-Ti) :   0.6501 B( 30-O , 87-Ti) :   0.7546 
B( 31-O , 36-Ti) :   0.6501 B( 31-O , 88-Ti) :   0.7546 B( 32-Ti, 47-O ) :   0.7012 
B( 32-Ti, 48-O ) :   0.7012 B( 32-Ti, 49-O ) :   0.7012 B( 32-Ti, 50-O ) :   0.7012 
B( 32-Ti,108-O ) :   0.3918 B( 33-Ti, 43-O ) :   0.7399 B( 33-Ti, 57-O ) :   0.6810 
B( 33-Ti, 69-O ) :   0.5242 B( 33-Ti, 97-O ) :   0.5511 B( 34-Ti, 44-O ) :   0.7399 
B( 34-Ti, 58-O ) :   0.6810 B( 34-Ti, 70-O ) :   0.5242 B( 34-Ti, 98-O ) :   0.5511 
B( 35-Ti, 45-O ) :   0.7399 B( 35-Ti, 59-O ) :   0.6810 B( 35-Ti, 71-O ) :   0.5242 
B( 35-Ti, 99-O ) :   0.5511 B( 36-Ti, 46-O ) :   0.7399 B( 36-Ti, 60-O ) :   0.6810 
B( 36-Ti, 72-O ) :   0.5242 B( 36-Ti,100-O ) :   0.5511 B( 37-O , 91-Ti) :   0.7577 
B( 38-O , 92-Ti) :   0.7577 B( 39-O , 73-Ti) :   0.7949 B( 39-O , 76-Ti) :   0.7949 
B( 40-O , 74-Ti) :   0.7949 B( 40-O , 75-Ti) :   0.7949 B( 41-Ti, 57-O ) :   0.5535 
B( 41-Ti, 58-O ) :   0.5535 B( 41-Ti, 89-O ) :   0.5816 B( 41-Ti, 95-O ) :   0.4390 
B( 42-Ti, 59-O ) :   0.5535 B( 42-Ti, 60-O ) :   0.5535 B( 42-Ti, 90-O ) :   0.5816 
B( 42-Ti, 96-O ) :   0.4390 B( 43-O ,115-Ti) :   0.8084 B( 44-O ,116-Ti) :   0.8084 
B( 45-O ,117-Ti) :   0.8084 B( 46-O ,118-Ti) :   0.8084 B( 47-O , 61-Ti) :   0.7835 
B( 47-O , 73-Ti) :   0.6936 B( 48-O , 61-Ti) :   0.7835 B( 48-O , 74-Ti) :   0.6936 
B( 49-O , 62-Ti) :   0.7835 B( 49-O , 75-Ti) :   0.6936 B( 50-O , 62-Ti) :   0.7835 
B( 50-O , 76-Ti) :   0.6936 B( 51-O , 63-Ti) :   0.7604 B( 51-O ,125-Ti) :   0.8531 
B( 52-O , 64-Ti) :   0.7604 B( 52-O ,126-Ti) :   0.8531 B( 53-O , 85-Ti) :   0.7109 
B( 53-O , 93-Ti) :   0.7885 B( 54-O , 86-Ti) :   0.7109 B( 54-O , 93-Ti) :   0.7885 
B( 55-O , 87-Ti) :   0.7109 B( 55-O , 94-Ti) :   0.7885 B( 56-O , 88-Ti) :   0.7109 
B( 56-O , 94-Ti) :   0.7885 B( 57-O ,127-Ti) :   0.8477 B( 58-O ,128-Ti) :   0.8477 
B( 59-O ,129-Ti) :   0.8477 B( 60-O ,130-Ti) :   0.8477 B( 61-Ti,101-O ) :   0.6430 
B( 61-Ti,102-O ) :   0.6430 B( 61-Ti,161-O ) :   0.6774 B( 62-Ti,103-O ) :   0.6430 
B( 62-Ti,104-O ) :   0.6430 B( 62-Ti,162-O ) :   0.6774 B( 63-Ti, 77-O ) :   0.6451 
B( 63-Ti, 78-O ) :   0.6451 B( 63-Ti,105-O ) :   0.7755 B( 63-Ti,155-O ) :   0.8134 
B( 64-Ti, 79-O ) :   0.6451 B( 64-Ti, 80-O ) :   0.6451 B( 64-Ti,105-O ) :   0.7755 
B( 64-Ti,156-O ) :   0.8134 B( 65-O , 85-Ti) :   0.7264 B( 65-O ,121-Ti) :   0.7593 
B( 66-O , 86-Ti) :   0.7264 B( 66-O ,122-Ti) :   0.7593 B( 67-O , 87-Ti) :   0.7264 
B( 67-O ,123-Ti) :   0.7593 B( 68-O , 88-Ti) :   0.7264 B( 68-O ,124-Ti) :   0.7593 
B( 69-O , 73-Ti) :   0.7311 B( 69-O ,143-Ti) :   0.8594 B( 70-O , 74-Ti) :   0.7310 
B( 70-O ,144-Ti) :   0.8594 B( 71-O , 75-Ti) :   0.7310 B( 71-O ,145-Ti) :   0.8594 
B( 72-O , 76-Ti) :   0.7310 B( 72-O ,146-Ti) :   0.8594 B( 73-Ti,109-O ) :   0.7977 
B( 73-Ti,137-O ) :   0.6274 B( 73-Ti,163-O ) :   0.7842 B( 74-Ti,110-O ) :   0.7977 
B( 74-Ti,138-O ) :   0.6274 B( 74-Ti,164-O ) :   0.7842 B( 75-Ti,110-O ) :   0.7977 
B( 75-Ti,139-O ) :   0.6274 B( 75-Ti,165-O ) :   0.7842 B( 76-Ti,109-O ) :   0.7977 
B( 76-Ti,140-O ) :   0.6274 B( 76-Ti,166-O ) :   0.7842 B( 77-O , 91-Ti) :   0.6894 
B( 77-O ,121-Ti) :   0.8172 B( 78-O , 92-Ti) :   0.6894 B( 78-O ,122-Ti) :   0.8172 
B( 79-O , 92-Ti) :   0.6894 B( 79-O ,123-Ti) :   0.8172 B( 80-O , 91-Ti) :   0.6894 
B( 80-O ,124-Ti) :   0.8172 B( 81-O ,119-Ti) :   0.7213 B( 81-O ,167-Ti) :   0.8684 
B( 82-O ,120-Ti) :   0.7213 B( 82-O ,168-Ti) :   0.8684 B( 83-O ,120-Ti) :   0.7213 
B( 83-O ,169-Ti) :   0.8684 B( 84-O ,119-Ti) :   0.7213 B( 84-O ,170-Ti) :   0.8684 
B( 85-Ti,111-O ) :   0.8000 B( 85-Ti,151-O ) :   0.7283 B( 85-Ti,173-O ) :   0.8209 
B( 86-Ti,112-O ) :   0.8000 B( 86-Ti,152-O ) :   0.7283 B( 86-Ti,174-O ) :   0.8209 
B( 87-Ti,113-O ) :   0.8000 B( 87-Ti,153-O ) :   0.7283 B( 87-Ti,175-O ) :   0.8209 
B( 88-Ti,114-O ) :   0.8000 B( 88-Ti,154-O ) :   0.7283 B( 88-Ti,176-O ) :   0.8209 
B( 89-O , 93-Ti) :   0.6391 B( 89-O ,181-Ti) :   0.8907 B( 90-O , 94-Ti) :   0.6391 
B( 90-O ,182-Ti) :   0.8907 B( 91-Ti,133-O ) :   0.7709 B( 91-Ti,136-O ) :   0.7709 
B( 92-Ti,134-O ) :   0.7709 B( 92-Ti,135-O ) :   0.7709 B( 93-Ti,141-O ) :   0.7302 
B( 93-Ti,189-O ) :   0.8105 B( 93-Ti,190-O ) :   0.8105 B( 94-Ti,142-O ) :   0.7302 
B( 94-Ti,191-O ) :   0.8105 B( 94-Ti,192-O ) :   0.8105 B( 95-O ,171-Ti) :   0.7855 
B( 95-O ,181-Ti) :   0.8091 B( 96-O ,172-Ti) :   0.7855 B( 96-O ,182-Ti) :   0.8091 
B( 97-O ,127-Ti) :   0.6894 B( 97-O ,201-Ti) :   0.8007 B( 98-O ,128-Ti) :   0.6894 
B( 98-O ,202-Ti) :   0.8007 B( 99-O ,129-Ti) :   0.6894 B( 99-O ,203-Ti) :   0.8007 
B(100-O ,130-Ti) :   0.6894 B(100-O ,204-Ti) :   0.8007 B(101-O ,143-Ti) :   0.6411 
B(101-O ,171-Ti) :   0.8644 B(102-O ,144-Ti) :   0.6411 B(102-O ,171-Ti) :   0.8644 
B(103-O ,145-Ti) :   0.6411 B(103-O ,172-Ti) :   0.8644 B(104-O ,146-Ti) :   0.6411 
B(104-O ,172-Ti) :   0.8644 B(106-O ,115-Ti) :   0.7565 B(106-O ,118-Ti) :   0.7565 
B(106-O ,119-Ti) :   0.6346 B(107-O ,116-Ti) :   0.7565 B(107-O ,117-Ti) :   0.7565 
B(107-O ,120-Ti) :   0.6346 B(108-O ,197-Ti) :   0.8246 B(108-O ,198-Ti) :   0.8246 
B(111-O ,127-Ti) :   0.7233 B(112-O ,128-Ti) :   0.7233 B(113-O ,129-Ti) :   0.7233 
B(114-O ,130-Ti) :   0.7233 B(115-Ti,131-O ) :   0.7021 B(115-Ti,157-O ) :   0.6742 
B(115-Ti,183-O ) :   0.7001 B(116-Ti,132-O ) :   0.7021 B(116-Ti,158-O ) :   0.6742 
B(116-Ti,184-O ) :   0.7001 B(117-Ti,132-O ) :   0.7021 B(117-Ti,159-O ) :   0.6742 
B(117-Ti,185-O ) :   0.7001 B(118-Ti,131-O ) :   0.7021 B(118-Ti,160-O ) :   0.6742 
B(118-Ti,186-O ) :   0.7001 B(119-Ti,187-O ) :   0.7512 B(119-Ti,205-O ) :   0.7751 
B(119-Ti,208-O ) :   0.7751 B(120-Ti,188-O ) :   0.7512 B(120-Ti,206-O ) :   0.7751 
B(120-Ti,207-O ) :   0.7751 B(121-Ti,133-O ) :   0.7544 B(121-Ti,147-O ) :   0.7609 
B(122-Ti,134-O ) :   0.7544 B(122-Ti,148-O ) :   0.7609 B(123-Ti,135-O ) :   0.7544 
B(123-Ti,149-O ) :   0.7609 B(124-Ti,136-O ) :   0.7544 B(124-Ti,150-O ) :   0.7609 
B(125-Ti,141-O ) :   0.7879 B(125-Ti,147-O ) :   0.6867 B(125-Ti,148-O ) :   0.6867 
B(125-Ti,155-O ) :   0.7501 B(126-Ti,142-O ) :   0.7879 B(126-Ti,149-O ) :   0.6867 
B(126-Ti,150-O ) :   0.6867 B(126-Ti,156-O ) :   0.7501 B(127-Ti,177-O ) :   0.7197 
B(127-Ti,193-O ) :   0.7804 B(128-Ti,178-O ) :   0.7197 B(128-Ti,194-O ) :   0.7804 
B(129-Ti,179-O ) :   0.7197 B(129-Ti,195-O ) :   0.7804 B(130-Ti,180-O ) :   0.7197 
B(130-Ti,196-O ) :   0.7804 B(131-O ,199-Ti) :   0.7162 B(132-O ,200-Ti) :   0.7162 
B(137-O ,199-Ti) :   0.8773 B(138-O ,200-Ti) :   0.8773 B(139-O ,200-Ti) :   0.8773 
B(140-O ,199-Ti) :   0.8773 B(143-Ti,163-O ) :   0.7623 B(143-Ti,177-O ) :   0.8339 
B(144-Ti,164-O ) :   0.7623 B(144-Ti,178-O ) :   0.8339 B(145-Ti,165-O ) :   0.7623 
B(145-Ti,179-O ) :   0.8339 B(146-Ti,166-O ) :   0.7623 B(146-Ti,180-O ) :   0.8339 
B(151-O ,167-Ti) :   0.8229 B(152-O ,168-Ti) :   0.8230 B(153-O ,169-Ti) :   0.8229 
B(154-O ,170-Ti) :   0.8229 B(157-O ,167-Ti) :   0.6301 B(157-O ,201-Ti) :   0.8319 
B(158-O ,168-Ti) :   0.6301 B(158-O ,202-Ti) :   0.8319 B(159-O ,169-Ti) :   0.6301 
B(159-O ,203-Ti) :   0.8319 B(160-O ,170-Ti) :   0.6301 B(160-O ,204-Ti) :   0.8319 
B(161-O ,197-Ti) :   0.8307 B(162-O ,198-Ti) :   0.8307 B(167-Ti,205-O ) :   0.7677 
B(168-Ti,206-O ) :   0.7677 B(169-Ti,207-O ) :   0.7677 B(170-Ti,208-O ) :   0.7677 
B(181-Ti,193-O ) :   0.7490 B(181-Ti,194-O ) :   0.7490 B(182-Ti,195-O ) :   0.7490 
B(182-Ti,196-O ) :   0.7490 B(183-O ,201-Ti) :   0.8960 B(184-O ,202-Ti) :   0.8960 
B(185-O ,203-Ti) :   0.8960 B(186-O ,204-Ti) :   0.8960 B(197-Ti,209-O ) :   0.7776 
B(198-Ti,209-O ) :   0.7776 

-------
TIMINGS
-------

Total SCF time: 0 days 2 hours 23 min 36 sec 

Total time                  ....    8616.031 sec
Sum of individual times     ....    8435.398 sec  ( 97.9%)

Fock matrix formation       ....    7078.626 sec  ( 82.2%)
  Split-RI-J                ....    1033.417 sec  ( 14.6% of F)
  XC integration            ....    1235.221 sec  ( 17.5% of F)
    Basis function eval.    ....     283.571 sec  ( 23.0% of XC)
    Density eval.           ....     651.380 sec  ( 52.7% of XC)
    XC-Functional eval.     ....      14.615 sec  (  1.2% of XC)
    XC-Potential eval.      ....     169.975 sec  ( 13.8% of XC)
Diagonalization             ....     531.330 sec  (  6.2%)
Density matrix formation    ....     111.208 sec  (  1.3%)
Population analysis         ....       8.519 sec  (  0.1%)
Initial guess               ....      14.885 sec  (  0.2%)
Orbital Transformation      ....     110.183 sec  (  1.3%)
Orbital Orthonormalization  ....       0.000 sec  (  0.0%)
DIIS solution               ....     541.495 sec  (  6.3%)
Grid generation             ....      38.711 sec  (  0.4%)

Maximum memory used throughout the entire SCF-calculation: 2086.6 MB

-------------------------   --------------------
FINAL SINGLE POINT ENERGY   -108773.467654960870
-------------------------   --------------------


                            ***************************************
                            *     ORCA property calculations      *
                            ***************************************

                                    ---------------------
                                    Active property flags
                                    ---------------------
   (+) Dipole Moment


------------------------------------------------------------------------------
                       ORCA ELECTRIC PROPERTIES CALCULATION
------------------------------------------------------------------------------

Dipole Moment Calculation                       ... on
Quadrupole Moment Calculation                   ... off
Polarizability Calculation                      ... off
GBWName                                         ... orca.gbw
Electron density                                ... orca.scfp
The origin for moment calculation is the CENTER OF MASS  = ( 0.000000,  0.000000 -0.423360)

-------------
DIPOLE MOMENT
-------------
                                X             Y             Z
Electronic contribution:      0.00000       0.00000    -180.60314
Nuclear contribution   :      0.00000       0.00000     156.89100
                        -----------------------------------------
Total Dipole Moment    :      0.00000       0.00000     -23.71213
                        -----------------------------------------
Magnitude (a.u.)       :     23.71213
Magnitude (Debye)      :     60.27146



--------------------
Rotational spectrum 
--------------------
 
Rotational constants in cm-1:     0.000122     0.000117     0.000111 
Rotational constants in MHz :     3.658473     3.506655     3.319153 

 Dipole components along the rotational axes: 
x,y,z [a.u.] :     0.000003     0.000000   -23.712135 
x,y,z [Debye]:     0.000006     0.000001   -60.271457 

 

Timings for individual modules:

Sum of individual times         ...    11016.386 sec (= 183.606 min)
GTO integral calculation        ...     2396.701 sec (=  39.945 min)  21.8 %
SCF iterations                  ...     8619.685 sec (= 143.661 min)  78.2 %
                             ****ORCA TERMINATED NORMALLY****
TOTAL RUN TIME: 0 days 3 hours 3 minutes 48 seconds 464 msec
