 vasp.6.2.0 18Jan21 (build Mar 03 2021 13:27:41) complex                        
  
 executed on             LinuxIFC date 2021.06.30  08:33:29
 running on   80 total cores
 distrk:  each k-point on   80 cores,    1 groups
 distr:  one band on NCORE=  20 cores,    4 groups


--------------------------------------------------------------------------------------------------------


 INCAR:
   SYSTEM = TiO2-rutile
   ISMEAR = 0
   SIGMA = 0.05
   EDIFF = 1E-5
   ALGO = Fast
   ISTART = 1
   GGA = PS
   ISYM = 0
   IBRION = -1
   NSW = 0
   EDIFFG = -0.01
   ENCUT = 500
   PREC = Accurate
   LASPH = .TRUE.
   LREAL = Auto
   ISPIN = 1
   NELM = 500
   NELMIN = 4
   NCORE = 20
   LWAVE = .FALSE.
   LCHARG = .FALSE.
   LORBIT = 11

 POTCAR:    PAW_PBE Ti_sv 26Sep2005               
 POTCAR:    PAW_PBE O 08Apr2002                   
 -----------------------------------------------------------------------------
|                                                                             |
|           W    W    AA    RRRRR   N    N  II  N    N   GGGG   !!!           |
|           W    W   A  A   R    R  NN   N  II  NN   N  G    G  !!!           |
|           W    W  A    A  R    R  N N  N  II  N N  N  G       !!!           |
|           W WW W  AAAAAA  RRRRR   N  N N  II  N  N N  G  GGG   !            |
|           WW  WW  A    A  R   R   N   NN  II  N   NN  G    G                |
|           W    W  A    A  R    R  N    N  II  N    N   GGGG   !!!           |
|                                                                             |
|     For optimal performance we recommend to set                             |
|       NCORE = 2 up to number-of-cores-per-socket                            |
|     NCORE specifies how many cores store one orbital (NPAR=cpu/NCORE).      |
|     This setting can greatly improve the performance of VASP for DFT.       |
|     The default, NCORE=1 might be grossly inefficient on modern             |
|     multi-core architectures or massively parallel machines. Do your        |
|     own testing! More info at https://www.vasp.at/wiki/index.php/NCORE      |
|     Unfortunately you need to use the default for GW and RPA                |
|     calculations (for HF NCORE is supported but not extensively tested      |
|     yet).                                                                   |
|                                                                             |
 -----------------------------------------------------------------------------

 POTCAR:    PAW_PBE Ti_sv 26Sep2005               
   SHA256 =  4d747badb5a5ea28d858fbac70885b3f8929d6fd9e5b0dbe1ecb9878dc164da1 Ti_sv/POTCAR          
   COPYR  = (c) Copyright 26Sep2005 Georg Kresse                                                    
   COPYR  = This file is part of the software VASP. Any use, copying, and all other rights are regul
   COPYR  = If you do not have a valid VASP license, you may not use, copy or distribute this file. 
   VRHFIN =Ti: 3p4s3d                                                                               
   LEXCH  = PE                                                                                      
   EATOM  =  1588.0892 eV,  116.7213 Ry                                                             
                                                                                                    
   TITEL  = PAW_PBE Ti_sv 26Sep2005                                                                 
   LULTRA =        F    use ultrasoft PP ?                                                          
   IUNSCR =        1    unscreen: 0-lin 1-nonlin 2-no                                               
   RPACOR =    2.000    partial core radius                                                         
   POMASS =   47.880; ZVAL   =   12.000    mass and valenz                                          
   RCORE  =    2.300    outmost cutoff radius                                                       
   RWIGS  =    2.300; RWIGS  =    1.217    wigner-seitz radius (au A)                               
   ENMAX  =  274.610; ENMIN  =  205.957 eV                                                          
   ICORE  =        3    local potential                                                             
   LCOR   =        T    correct aug charges                                                         
   LPAW   =        T    paw PP                                                                      
   EAUG   =  482.848                                                                                
   RMAX   =    2.348    core radius for proj-oper                                                   
   RAUG   =    1.300    factor for augmentation sphere                                              
   RDEP   =    2.381    radius for radial grids                                                     
   RDEPT  =    1.930    core radius for aug-charge                                                  
                                                                                                    
   Atomic configuration                                                                             
    8 entries                                                                                       
     n  l   j            E        occ.                                                              
     1  0  0.50     -4865.3608   2.0000                                                             
     2  0  0.50      -533.1368   2.0000                                                             
     2  1  1.50      -440.5031   6.0000                                                             
     3  0  0.50       -59.3186   2.0000                                                             
     4  0  0.50        -3.7291   1.0000                                                             
     3  1  1.50       -35.7012   6.0000                                                             
     3  2  2.50        -1.9157   3.0000                                                             
     4  3  2.50        -1.3606   0.0000                                                             
   Description                                                                                      
     l       E           TYP  RCUT    TYP  RCUT                                                     
     0    -59.3185931     23  1.800                                                                 
     0     -3.7290822     23  2.300                                                                 
     1    -35.7012045     23  2.300                                                                 
     1     -1.3605826     23  2.300                                                                 
     2     -1.9156920     23  2.300                                                                 
     2     -0.0236318     23  2.300                                                                 
     3     -1.3605826     23  2.300                                                                 
  local pseudopotential read in
  partial core-charges read in
  partial kinetic energy density read in
  atomic valenz-charges read in
  non local Contribution for L=           0  read in
    real space projection operators read in
  non local Contribution for L=           0  read in
    real space projection operators read in
  non local Contribution for L=           1  read in
    real space projection operators read in
  non local Contribution for L=           1  read in
    real space projection operators read in
  non local Contribution for L=           2  read in
    real space projection operators read in
  non local Contribution for L=           2  read in
    real space projection operators read in
    PAW grid and wavefunctions read in
 
   number of l-projection  operators is LMAX  =           6
   number of lm-projection operators is LMMAX =          18
 
 POTCAR:    PAW_PBE O 08Apr2002                   
   SHA256 =  818f92134a0a090dccd8ba1447fa70422a3b330e708bb4f08108d8ae51209ddf O/POTCAR              
   COPYR  = (c) Copyright 08Apr2002 Georg Kresse                                                    
   COPYR  = This file is part of the software VASP. Any use, copying, and all other rights are regul
   COPYR  = If you do not have a valid VASP license, you may not use, copy or distribute this file. 
   VRHFIN =O: s2p4                                                                                  
   LEXCH  = PE                                                                                      
   EATOM  =   432.3788 eV,   31.7789 Ry                                                             
                                                                                                    
   TITEL  = PAW_PBE O 08Apr2002                                                                     
   LULTRA =        F    use ultrasoft PP ?                                                          
   IUNSCR =        1    unscreen: 0-lin 1-nonlin 2-no                                               
   RPACOR =    1.200    partial core radius                                                         
   POMASS =   16.000; ZVAL   =    6.000    mass and valenz                                          
   RCORE  =    1.520    outmost cutoff radius                                                       
   RWIGS  =    1.550; RWIGS  =    0.820    wigner-seitz radius (au A)                               
   ENMAX  =  400.000; ENMIN  =  300.000 eV                                                          
   ICORE  =        2    local potential                                                             
   LCOR   =        T    correct aug charges                                                         
   LPAW   =        T    paw PP                                                                      
   EAUG   =  605.392                                                                                
   DEXC   =    0.000                                                                                
   RMAX   =    1.553    core radius for proj-oper                                                   
   RAUG   =    1.300    factor for augmentation sphere                                              
   RDEP   =    1.550    radius for radial grids                                                     
   RDEPT  =    1.329    core radius for aug-charge                                                  
                                                                                                    
   Atomic configuration                                                                             
    4 entries                                                                                       
     n  l   j            E        occ.                                                              
     1  0  0.50      -514.6923   2.0000                                                             
     2  0  0.50       -23.9615   2.0000                                                             
     2  1  0.50        -9.0305   4.0000                                                             
     3  2  1.50        -9.5241   0.0000                                                             
   Description                                                                                      
     l       E           TYP  RCUT    TYP  RCUT                                                     
     0    -23.9615318     23  1.200                                                                 
     0     -9.5240782     23  1.200                                                                 
     1     -9.0304911     23  1.520                                                                 
     1      8.1634956     23  1.520                                                                 
     2     -9.5240782      7  1.500                                                                 
  local pseudopotential read in
  partial core-charges read in
  partial kinetic energy density read in
  kinetic energy density of atom read in
  atomic valenz-charges read in
  non local Contribution for L=           0  read in
    real space projection operators read in
  non local Contribution for L=           0  read in
    real space projection operators read in
  non local Contribution for L=           1  read in
    real space projection operators read in
  non local Contribution for L=           1  read in
    real space projection operators read in
    PAW grid and wavefunctions read in
 
   number of l-projection  operators is LMAX  =           4
   number of lm-projection operators is LMMAX =           8
 
 Optimization of the real space projectors (new method)

 maximal supplied QI-value         = 16.25
 optimisation between [QCUT,QGAM] = [ 11.38, 22.75] = [ 36.24,144.96] Ry 
 Optimized for a Real-space Cutoff    1.27 Angstroem

   l    n(q)    QCUT    max X(q) W(low)/X(q) W(high)/X(q)  e(spline) 
   0      9    11.376    12.277    0.53E-04    0.25E-04    0.25E-07
   0      9    11.376    11.419    0.89E-04    0.67E-05    0.35E-07
   1      8    11.376     4.010    0.13E-03    0.11E-03    0.29E-07
   1      8    11.376     6.182    0.94E-04    0.19E-03    0.11E-06
   2      8    11.376    47.177    0.13E-03    0.88E-03    0.24E-06
   2      8    11.376    42.437    0.13E-03    0.86E-03    0.23E-06
 Optimization of the real space projectors (new method)

 maximal supplied QI-value         = 24.76
 optimisation between [QCUT,QGAM] = [ 11.39, 22.77] = [ 36.31,145.25] Ry 
 Optimized for a Real-space Cutoff    1.10 Angstroem

   l    n(q)    QCUT    max X(q) W(low)/X(q) W(high)/X(q)  e(spline) 
   0      7    11.387    20.381    0.22E-03    0.48E-03    0.18E-06
   0      7    11.387    15.268    0.22E-03    0.52E-03    0.19E-06
   1      7    11.387     5.964    0.22E-03    0.73E-03    0.24E-06
   1      7    11.387     5.382    0.19E-03    0.60E-03    0.21E-06
 -----------------------------------------------------------------------------
|                                                                             |
|               ----> ADVICE to this user running VASP <----                  |
|                                                                             |
|     You enforced a specific xc type in the INCAR file but a different       |
|     type was found in the POTCAR file.                                      |
|     I HOPE YOU KNOW WHAT YOU ARE DOING!                                     |
|                                                                             |
 -----------------------------------------------------------------------------

  PAW_PBE Ti_sv 26Sep2005               :
 energy of atom  1       EATOM=-1588.0892
 kinetic energy error for atom=    0.0046 (will be added to EATOM!!)
  PAW_PBE O 08Apr2002                   :
 energy of atom  2       EATOM= -432.3788
 kinetic energy error for atom=    0.0224 (will be added to EATOM!!)
 
 
 POSCAR: Ti  O
  positions in direct lattice
  No initial velocities read in
 exchange correlation table for  LEXCH =       14
   RHO(1)=    0.500       N(1)  =     2000
   RHO(2)=  100.500       N(2)  =     4000
 


--------------------------------------------------------------------------------------------------------


 ion  position               nearest neighbor table
   1  0.500  0.125  0.287-  83 1.94 103 1.94  84 1.94 104 1.94  81 1.98  82 1.98
   2  0.250  0.000  0.287-  81 1.94 140 1.94 161 1.94 221 1.94  87 1.98
   3  0.250  0.125  0.394-  87 1.94 107 1.94  88 1.94 108 1.94  86 1.98 164 1.98
   4  0.500  0.000  0.394-  85 1.94  86 1.94 144 1.94 145 1.94  84 1.98  91 1.98
   5  0.500  0.125  0.500-  91 1.94  92 1.94 111 1.94 112 1.94  89 1.98  90 1.98
   6  0.250  0.000  0.500-  89 1.94 148 1.94 169 1.94 229 1.94  88 1.98  95 1.99
   7  0.250  0.125  0.604- 115 1.89  95 1.89 172 1.95  94 1.95  96 2.00 116 2.00
   8  0.500  0.000  0.610-  99 1.86  94 1.97 153 1.97  93 1.97 152 1.97  92 2.09
   9  0.500  0.125  0.719- 100 1.82 120 1.82  98 2.03  97 2.03 119 2.08  99 2.09
  10  0.750  0.000  0.708- 175 1.81 176 1.94  98 1.94 236 1.94 157 1.94
  11  0.500  0.375  0.287- 103 1.94 123 1.94 104 1.94 124 1.94 101 1.98 102 1.98
  12  0.250  0.250  0.287-  81 1.94 101 1.94 161 1.94 181 1.94 107 1.98
  13  0.250  0.375  0.394- 107 1.94 127 1.94 108 1.94 128 1.94 106 1.98 184 1.98
  14  0.500  0.250  0.394-  85 1.94  86 1.94 105 1.94 106 1.94 104 1.98 111 1.98
  15  0.500  0.375  0.500- 111 1.94 112 1.94 131 1.94 132 1.94 109 1.98 110 1.98
  16  0.250  0.250  0.500-  89 1.94 109 1.94 169 1.94 189 1.94 108 1.98 115 1.99
  17  0.250  0.375  0.604- 115 1.89 135 1.89 114 1.95 192 1.95 136 2.00 116 2.00
  18  0.500  0.250  0.610- 119 1.86 113 1.97  93 1.97 114 1.97  94 1.97 112 2.10
  19  0.500  0.375  0.719- 120 1.82 118 2.03 117 2.03 119 2.08 139 2.09
  20  0.750  0.250  0.708- 195 1.81  98 1.94 176 1.94 118 1.94 196 1.94
  21  0.500  0.625  0.287- 123 1.94 142 1.94 124 1.94 143 1.94 121 1.98 122 1.98
  22  0.250  0.500  0.287- 101 1.94 121 1.94 181 1.94 201 1.94 127 1.98
  23  0.250  0.625  0.394- 127 1.94 146 1.94 128 1.94 147 1.94 126 1.98 204 1.98
  24  0.500  0.500  0.394- 105 1.94 106 1.94 125 1.94 126 1.94 124 1.98 131 1.98
  25  0.500  0.625  0.500- 131 1.94 132 1.94 150 1.94 151 1.94 129 1.98 130 1.98
  26  0.250  0.500  0.500- 109 1.94 129 1.94 189 1.94 209 1.94 128 1.98 135 1.99
  27  0.250  0.625  0.604- 154 1.89 135 1.89 134 1.95 212 1.95 136 2.00 155 2.00
  28  0.500  0.500  0.610- 139 1.86 114 1.97 134 1.97 113 1.97 133 1.97 132 2.09
  29  0.500  0.625  0.719- 159 1.82 138 2.03 137 2.03 158 2.08 139 2.09
  30  0.750  0.500  0.708- 215 1.81 138 1.94 216 1.94 118 1.94 196 1.94
  31  0.500  0.875  0.287-  83 1.94 142 1.94  84 1.94 143 1.94 140 1.98 141 1.98
  32  0.250  0.750  0.287- 121 1.94 140 1.94 201 1.94 221 1.94 146 1.98
  33  0.250  0.875  0.394-  87 1.94 146 1.94  88 1.94 147 1.94 145 1.98 224 1.98
  34  0.500  0.750  0.394- 125 1.94 126 1.94 144 1.94 145 1.94 143 1.98 150 1.98
  35  0.500  0.875  0.500-  91 1.94  92 1.94 150 1.94 151 1.94 148 1.98 149 1.98
  36  0.250  0.750  0.500- 129 1.94 148 1.94 209 1.94 229 1.94 147 1.98 154 1.99
  37  0.250  0.875  0.604- 154 1.89  95 1.89 232 1.95 153 1.95  96 2.00 155 2.00
  38  0.500  0.750  0.610- 158 1.86 133 1.97 152 1.97 134 1.97 153 1.97 151 2.10
  39  0.500  0.875  0.719- 100 1.82 159 1.82 157 2.03 156 2.03 158 2.08  99 2.09
  40  0.750  0.750  0.708- 235 1.81 138 1.94 216 1.94 157 1.94 236 1.94
  41  0.000  0.125  0.287- 162 1.94 182 1.94 163 1.94 183 1.94 160 1.98 161 1.98
  42  0.750  0.000  0.287-  82 1.94 141 1.94 160 1.94 220 1.94 166 1.98
  43  0.750  0.125  0.394- 166 1.94 186 1.94 167 1.94 187 1.94  85 1.98 165 1.98
  44  0.000  0.000  0.394- 164 1.94 165 1.94 224 1.94 225 1.94 163 1.98 170 1.98
  45  0.000  0.125  0.500- 170 1.94 171 1.94 190 1.94 191 1.94 168 1.98 169 1.98
  46  0.750  0.000  0.500-  90 1.94 149 1.94 168 1.94 228 1.94 167 1.98 174 1.99
  47  0.750  0.125  0.604- 194 1.89 174 1.89  93 1.95 173 1.95 175 2.00 195 2.00
  48  1.000  0.000  0.610- 178 1.86 173 1.97 233 1.97 172 1.97 232 1.97 171 2.09
  49  1.000  0.125  0.719- 179 1.82 199 1.82 176 2.03 177 2.03 198 2.08 178 2.09
  50  0.250  1.000  0.708-  96 1.81 156 1.94 237 1.94  97 1.94 177 1.94
  51  0.000  0.375  0.287- 182 1.94 202 1.94 183 1.94 203 1.94 180 1.98 181 1.98
  52  0.750  0.250  0.287-  82 1.94 102 1.94 160 1.94 180 1.94 186 1.98
  53  0.750  0.375  0.394- 186 1.94 206 1.94 187 1.94 207 1.94 105 1.98 185 1.98
  54  0.000  0.250  0.394- 164 1.94 165 1.94 184 1.94 185 1.94 183 1.98 190 1.98
  55  0.000  0.375  0.500- 190 1.94 191 1.94 210 1.94 211 1.94 188 1.98 189 1.98
  56  0.750  0.250  0.500-  90 1.94 110 1.94 168 1.94 188 1.94 187 1.98 194 1.99
  57  0.750  0.375  0.604- 194 1.89 214 1.89 193 1.95 113 1.95 215 2.00 195 2.00
  58  1.000  0.250  0.610- 198 1.86 193 1.97 173 1.97 192 1.97 172 1.97 191 2.10
  59  1.000  0.375  0.719- 219 1.82 199 1.82 196 2.03 197 2.03 198 2.08 218 2.09
  60  0.250  0.250  0.708- 116 1.81 177 1.94  97 1.94 117 1.94 197 1.94
  61  0.000  0.625  0.287- 202 1.94 222 1.94 203 1.94 223 1.94 200 1.98 201 1.98
  62  0.750  0.500  0.287- 102 1.94 122 1.94 180 1.94 200 1.94 206 1.98
  63  0.750  0.625  0.394- 206 1.94 226 1.94 207 1.94 227 1.94 125 1.98 205 1.98
  64  0.000  0.500  0.394- 184 1.94 185 1.94 204 1.94 205 1.94 203 1.98 210 1.98
  65  0.000  0.625  0.500- 210 1.94 211 1.94 230 1.94 231 1.94 208 1.98 209 1.98
  66  0.750  0.500  0.500- 110 1.94 130 1.94 188 1.94 208 1.94 207 1.98 214 1.99
  67  0.750  0.625  0.604- 234 1.89 214 1.89 133 1.95 213 1.95 215 2.00 235 2.00
  68  0.000  0.500  0.610- 218 1.86 192 1.97 193 1.97 212 1.97 213 1.97 211 2.09
  69  1.000  0.625  0.719- 219 1.82 239 1.82 216 2.03 217 2.03 238 2.08 218 2.09
  70  0.250  0.500  0.708- 136 1.81 137 1.94 117 1.94 217 1.94 197 1.94
  71  0.000  0.875  0.287- 162 1.94 222 1.94 163 1.94 223 1.94 220 1.98 221 1.98
  72  0.750  0.750  0.287- 122 1.94 141 1.94 200 1.94 220 1.94 226 1.98
  73  0.750  0.875  0.394- 166 1.94 226 1.94 167 1.94 227 1.94 144 1.98 225 1.98
  74  0.000  0.750  0.394- 204 1.94 205 1.94 224 1.94 225 1.94 223 1.98 230 1.98
  75  0.000  0.875  0.500- 170 1.94 171 1.94 230 1.94 231 1.94 228 1.98 229 1.98
  76  0.750  0.750  0.500- 130 1.94 149 1.94 208 1.94 228 1.94 227 1.98 234 1.99
  77  0.750  0.875  0.604- 234 1.89 174 1.89 152 1.95 233 1.95 175 2.00 235 2.00
  78  0.000  0.750  0.610- 238 1.86 212 1.97 232 1.97 233 1.97 213 1.97 231 2.10
  79  0.000  0.875  0.719- 179 1.82 239 1.82 237 2.03 236 2.03 238 2.08 178 2.09
  80  0.250  0.750  0.708- 155 1.81 156 1.94 237 1.94 137 1.94 217 1.94
  81  0.348  0.125  0.287-   2 1.94  12 1.94   1 1.98
  82  0.652  0.125  0.287-  42 1.94  52 1.94   1 1.98
  83  0.500  0.000  0.246-   1 1.94  31 1.94
  84  0.500  0.000  0.329-   1 1.94  31 1.94   4 1.98
  85  0.598  0.125  0.394-   4 1.94  14 1.94  43 1.98
  86  0.402  0.125  0.394-   4 1.94  14 1.94   3 1.98
  87  0.250  0.000  0.352-   3 1.94  33 1.94   2 1.98
  88  0.250  0.000  0.435-   3 1.94  33 1.94   6 1.98
  89  0.348  0.125  0.500-   6 1.94  16 1.94   5 1.98
  90  0.652  0.125  0.500-  46 1.94  56 1.94   5 1.98
  91  0.500  0.000  0.458-   5 1.94  35 1.94   4 1.98
  92  0.500  0.000  0.542-   5 1.94  35 1.94   8 2.09
  93  0.600  0.125  0.607-  47 1.95  18 1.97   8 1.97
  94  0.400  0.125  0.607-   7 1.95  18 1.97   8 1.97
  95  0.250  1.000  0.565-  37 1.89   7 1.89   6 1.99
  96  0.250  1.000  0.649-  50 1.81  37 2.00   7 2.00
  97  0.344  0.125  0.718-  60 1.94  50 1.94   9 2.03
  98  0.656  0.125  0.718-  20 1.94  10 1.94   9 2.03
  99  0.500  1.000  0.671-   8 1.86  39 2.09   9 2.09
 100  0.500  1.000  0.755-  39 1.82   9 1.82
 101  0.348  0.375  0.287-  12 1.94  22 1.94  11 1.98
 102  0.652  0.375  0.287-  52 1.94  62 1.94  11 1.98
 103  0.500  0.250  0.246-   1 1.94  11 1.94
 104  0.500  0.250  0.329-   1 1.94  11 1.94  14 1.98
 105  0.598  0.375  0.394-  14 1.94  24 1.94  53 1.98
 106  0.402  0.375  0.394-  14 1.94  24 1.94  13 1.98
 107  0.250  0.250  0.352-   3 1.94  13 1.94  12 1.98
 108  0.250  0.250  0.435-   3 1.94  13 1.94  16 1.98
 109  0.348  0.375  0.500-  16 1.94  26 1.94  15 1.98
 110  0.652  0.375  0.500-  56 1.94  66 1.94  15 1.98
 111  0.500  0.250  0.458-   5 1.94  15 1.94  14 1.98
 112  0.500  0.250  0.542-   5 1.94  15 1.94  18 2.10
 113  0.600  0.375  0.607-  57 1.95  18 1.97  28 1.97
 114  0.400  0.375  0.607-  17 1.95  18 1.97  28 1.97
 115  0.250  0.250  0.565-  17 1.89   7 1.89  16 1.99
 116  0.250  0.250  0.649-  60 1.81   7 2.00  17 2.00
 117  0.344  0.375  0.718-  60 1.94  70 1.94  19 2.03
 118  0.656  0.375  0.718-  20 1.94  30 1.94  19 2.03
 119  0.500  0.250  0.671-  18 1.86   9 2.08  19 2.08
 120  0.500  0.250  0.755-   9 1.82  19 1.82
 121  0.348  0.625  0.287-  22 1.94  32 1.94  21 1.98
 122  0.652  0.625  0.287-  62 1.94  72 1.94  21 1.98
 123  0.500  0.500  0.246-  11 1.94  21 1.94
 124  0.500  0.500  0.329-  11 1.94  21 1.94  24 1.98
 125  0.598  0.625  0.394-  24 1.94  34 1.94  63 1.98
 126  0.402  0.625  0.394-  24 1.94  34 1.94  23 1.98
 127  0.250  0.500  0.352-  13 1.94  23 1.94  22 1.98
 128  0.250  0.500  0.435-  13 1.94  23 1.94  26 1.98
 129  0.348  0.625  0.500-  26 1.94  36 1.94  25 1.98
 130  0.652  0.625  0.500-  66 1.94  76 1.94  25 1.98
 131  0.500  0.500  0.458-  15 1.94  25 1.94  24 1.98
 132  0.500  0.500  0.542-  15 1.94  25 1.94  28 2.09
 133  0.600  0.625  0.607-  67 1.95  38 1.97  28 1.97
 134  0.400  0.625  0.607-  27 1.95  38 1.97  28 1.97
 135  0.250  0.500  0.565-  17 1.89  27 1.89  26 1.99
 136  0.250  0.500  0.649-  70 1.81  27 2.00  17 2.00
 137  0.344  0.625  0.718-  80 1.94  70 1.94  29 2.03
 138  0.656  0.625  0.718-  40 1.94  30 1.94  29 2.03
 139  0.500  0.500  0.671-  28 1.86  19 2.09  29 2.09
 140  0.348  0.875  0.287-   2 1.94  32 1.94  31 1.98
 141  0.652  0.875  0.287-  42 1.94  72 1.94  31 1.98
 142  0.500  0.750  0.246-  21 1.94  31 1.94
 143  0.500  0.750  0.329-  21 1.94  31 1.94  34 1.98
 144  0.598  0.875  0.394-   4 1.94  34 1.94  73 1.98
 145  0.402  0.875  0.394-   4 1.94  34 1.94  33 1.98
 146  0.250  0.750  0.352-  23 1.94  33 1.94  32 1.98
 147  0.250  0.750  0.435-  23 1.94  33 1.94  36 1.98
 148  0.348  0.875  0.500-   6 1.94  36 1.94  35 1.98
 149  0.652  0.875  0.500-  46 1.94  76 1.94  35 1.98
 150  0.500  0.750  0.458-  25 1.94  35 1.94  34 1.98
 151  0.500  0.750  0.542-  25 1.94  35 1.94  38 2.10
 152  0.600  0.875  0.607-  77 1.95  38 1.97   8 1.97
 153  0.400  0.875  0.607-  37 1.95  38 1.97   8 1.97
 154  0.250  0.750  0.565-  27 1.89  37 1.89  36 1.99
 155  0.250  0.750  0.649-  80 1.81  27 2.00  37 2.00
 156  0.344  0.875  0.718-  80 1.94  50 1.94  39 2.03
 157  0.656  0.875  0.718-  40 1.94  10 1.94  39 2.03
 158  0.500  0.750  0.671-  38 1.86  39 2.08  29 2.08
 159  0.500  0.750  0.755-  39 1.82  29 1.82
 160  0.848  0.125  0.287-  42 1.94  52 1.94  41 1.98
 161  0.152  0.125  0.287-   2 1.94  12 1.94  41 1.98
 162  0.000  0.000  0.246-  41 1.94  71 1.94
 163  0.000  0.000  0.329-  41 1.94  71 1.94  44 1.98
 164  0.098  0.125  0.394-  44 1.94  54 1.94   3 1.98
 165  0.902  0.125  0.394-  44 1.94  54 1.94  43 1.98
 166  0.750  0.000  0.352-  43 1.94  73 1.94  42 1.98
 167  0.750  0.000  0.435-  43 1.94  73 1.94  46 1.98
 168  0.848  0.125  0.500-  46 1.94  56 1.94  45 1.98
 169  0.152  0.125  0.500-   6 1.94  16 1.94  45 1.98
 170  0.000  0.000  0.458-  45 1.94  75 1.94  44 1.98
 171  0.000  0.000  0.542-  45 1.94  75 1.94  48 2.09
 172  0.100  0.125  0.607-   7 1.95  58 1.97  48 1.97
 173  0.900  0.125  0.607-  47 1.95  58 1.97  48 1.97
 174  0.750  1.000  0.565-  77 1.89  47 1.89  46 1.99
 175  0.750  1.000  0.649-  10 1.81  77 2.00  47 2.00
 176  0.844  0.125  0.718-  20 1.94  10 1.94  49 2.03
 177  0.156  0.125  0.718-  60 1.94  50 1.94  49 2.03
 178  0.000  1.000  0.671-  48 1.86  79 2.09  49 2.09
 179  1.000  1.000  0.755-  79 1.82  49 1.82
 180  0.848  0.375  0.287-  52 1.94  62 1.94  51 1.98
 181  0.152  0.375  0.287-  12 1.94  22 1.94  51 1.98
 182  0.000  0.250  0.246-  41 1.94  51 1.94
 183  0.000  0.250  0.329-  41 1.94  51 1.94  54 1.98
 184  0.098  0.375  0.394-  54 1.94  64 1.94  13 1.98
 185  0.902  0.375  0.394-  54 1.94  64 1.94  53 1.98
 186  0.750  0.250  0.352-  43 1.94  53 1.94  52 1.98
 187  0.750  0.250  0.435-  43 1.94  53 1.94  56 1.98
 188  0.848  0.375  0.500-  56 1.94  66 1.94  55 1.98
 189  0.152  0.375  0.500-  16 1.94  26 1.94  55 1.98
 190  0.000  0.250  0.458-  45 1.94  55 1.94  54 1.98
 191  0.000  0.250  0.542-  45 1.94  55 1.94  58 2.10
 192  0.100  0.375  0.607-  17 1.95  58 1.97  68 1.97
 193  0.900  0.375  0.607-  57 1.95  58 1.97  68 1.97
 194  0.750  0.250  0.565-  47 1.89  57 1.89  56 1.99
 195  0.750  0.250  0.649-  20 1.81  47 2.00  57 2.00
 196  0.844  0.375  0.718-  20 1.94  30 1.94  59 2.03
 197  0.156  0.375  0.718-  60 1.94  70 1.94  59 2.03
 198  0.000  0.250  0.671-  58 1.86  49 2.08  59 2.08
 199  0.000  0.250  0.755-  59 1.82  49 1.82
 200  0.848  0.625  0.287-  62 1.94  72 1.94  61 1.98
 201  0.152  0.625  0.287-  22 1.94  32 1.94  61 1.98
 202  0.000  0.500  0.246-  51 1.94  61 1.94
 203  0.000  0.500  0.329-  51 1.94  61 1.94  64 1.98
 204  0.098  0.625  0.394-  64 1.94  74 1.94  23 1.98
 205  0.902  0.625  0.394-  64 1.94  74 1.94  63 1.98
 206  0.750  0.500  0.352-  53 1.94  63 1.94  62 1.98
 207  0.750  0.500  0.435-  53 1.94  63 1.94  66 1.98
 208  0.848  0.625  0.500-  66 1.94  76 1.94  65 1.98
 209  0.152  0.625  0.500-  26 1.94  36 1.94  65 1.98
 210  0.000  0.500  0.458-  55 1.94  65 1.94  64 1.98
 211  0.000  0.500  0.542-  55 1.94  65 1.94  68 2.09
 212  0.100  0.625  0.607-  27 1.95  78 1.97  68 1.97
 213  0.900  0.625  0.607-  67 1.95  78 1.97  68 1.97
 214  0.750  0.500  0.565-  67 1.89  57 1.89  66 1.99
 215  0.750  0.500  0.649-  30 1.81  67 2.00  57 2.00
 216  0.844  0.625  0.718-  40 1.94  30 1.94  69 2.03
 217  0.156  0.625  0.718-  80 1.94  70 1.94  69 2.03
 218  0.000  0.500  0.671-  68 1.86  59 2.09  69 2.09
 219  1.000  0.500  0.755-  59 1.82  69 1.82
 220  0.848  0.875  0.287-  42 1.94  72 1.94  71 1.98
 221  0.152  0.875  0.287-   2 1.94  32 1.94  71 1.98
 222  0.000  0.750  0.246-  61 1.94  71 1.94
 223  0.000  0.750  0.329-  61 1.94  71 1.94  74 1.98
 224  0.098  0.875  0.394-  44 1.94  74 1.94  33 1.98
 225  0.902  0.875  0.394-  44 1.94  74 1.94  73 1.98
 226  0.750  0.750  0.352-  63 1.94  73 1.94  72 1.98
 227  0.750  0.750  0.435-  63 1.94  73 1.94  76 1.98
 228  0.848  0.875  0.500-  46 1.94  76 1.94  75 1.98
 229  0.152  0.875  0.500-   6 1.94  36 1.94  75 1.98
 230  0.000  0.750  0.458-  65 1.94  75 1.94  74 1.98
 231  0.000  0.750  0.542-  65 1.94  75 1.94  78 2.10
 232  0.100  0.875  0.607-  37 1.95  78 1.97  48 1.97
 233  0.900  0.875  0.607-  77 1.95  78 1.97  48 1.97
 234  0.750  0.750  0.565-  77 1.89  67 1.89  76 1.99
 235  0.750  0.750  0.649-  40 1.81  77 2.00  67 2.00
 236  0.844  0.875  0.718-  40 1.94  10 1.94  79 2.03
 237  0.156  0.875  0.718-  80 1.94  50 1.94  79 2.03
 238  0.000  0.750  0.671-  78 1.86  69 2.08  79 2.08
 239  1.000  0.750  0.755-  79 1.82  69 1.82
 

IMPORTANT INFORMATION: All symmetrisations will be switched off!
NOSYMM: (Re-)initialisation of all symmetry stuff for point group C_1.


----------------------------------------------------------------------------------------

                                     Primitive cell                                     

  volume of cell :    4668.4649

  direct lattice vectors                    reciprocal lattice vectors
    12.993043738  0.000000000  0.000000000     0.076964260  0.000000000  0.000000000
     0.000000000 11.766713800  0.000000000     0.000000000  0.084985495  0.000000000
     0.000000000  0.000000000 30.535709218     0.000000000  0.000000000  0.032748543

  length of vectors
    12.993043738 11.766713800 30.535709218     0.076964260  0.084985495  0.032748543

  position of ions in fractional coordinates (direct lattice)
     0.500000000  0.125000000  0.287248371
     0.250000000  0.000000000  0.287248371
     0.250000000  0.125000000  0.393624186
     0.500000000  0.000000000  0.393624186
     0.500000000  0.125000000  0.500000000
     0.250000000  0.000000000  0.500000000
     0.249997327  0.124997159  0.604108210
     0.499993965  0.000000681  0.610149822
     0.500000591  0.125006938  0.719490675
     0.750000556  0.000001464  0.707770640
     0.500000000  0.375000000  0.287248371
     0.250000000  0.250000000  0.287248371
     0.250000000  0.375000000  0.393624186
     0.500000000  0.250000000  0.393624186
     0.500000000  0.375000000  0.500000000
     0.250000000  0.250000000  0.500000000
     0.250000292  0.375002633  0.604108097
     0.500002188  0.250000206  0.610337163
     0.500000051  0.374993470  0.719490910
     0.749999922  0.249998644  0.707850375
     0.500000000  0.625000000  0.287248371
     0.250000000  0.500000000  0.287248371
     0.250000000  0.625000000  0.393624186
     0.500000000  0.500000000  0.393624186
     0.500000000  0.625000000  0.500000000
     0.250000000  0.500000000  0.500000000
     0.250000296  0.624997454  0.604108156
     0.499998746  0.499999403  0.610150212
     0.500000787  0.625006894  0.719490799
     0.750000248  0.500003467  0.707771358
     0.500000000  0.875000000  0.287248371
     0.250000000  0.750000000  0.287248371
     0.250000000  0.875000000  0.393624186
     0.500000000  0.750000000  0.393624186
     0.500000000  0.875000000  0.500000000
     0.250000000  0.750000000  0.500000000
     0.249997334  0.875002860  0.604108185
     0.500001394  0.749999715  0.610337276
     0.499999922  0.874992960  0.719490845
     0.749999831  0.749993969  0.707851937
     0.000000000  0.125000000  0.287248371
     0.750000000  0.000000000  0.287248371
     0.750000000  0.125000000  0.393624186
     0.000000000  0.000000000  0.393624186
     0.000000000  0.125000000  0.500000000
     0.750000000  0.000000000  0.500000000
     0.749997370  0.124996361  0.604107994
     0.999999346  0.000000506  0.610149958
     0.999999610  0.125006983  0.719490971
     0.250000072  0.999999707  0.707770839
     0.000000000  0.375000000  0.287248371
     0.750000000  0.250000000  0.287248371
     0.750000000  0.375000000  0.393624186
     0.000000000  0.250000000  0.393624186
     0.000000000  0.375000000  0.500000000
     0.750000000  0.250000000  0.500000000
     0.750000232  0.375004219  0.604107799
     0.999999614  0.250000135  0.610337211
     0.999999989  0.374993147  0.719491036
     0.250000009  0.249998875  0.707850068
     0.000000000  0.625000000  0.287248371
     0.750000000  0.500000000  0.287248371
     0.750000000  0.625000000  0.393624186
     0.000000000  0.500000000  0.393624186
     0.000000000  0.625000000  0.500000000
     0.750000000  0.500000000  0.500000000
     0.750000478  0.624993869  0.604108146
     0.000000376  0.499999568  0.610150204
     0.999999179  0.625007104  0.719490933
     0.250000034  0.499999558  0.707770812
     0.000000000  0.875000000  0.287248371
     0.750000000  0.750000000  0.287248371
     0.750000000  0.875000000  0.393624186
     0.000000000  0.750000000  0.393624186
     0.000000000  0.875000000  0.500000000
     0.750000000  0.750000000  0.500000000
     0.749997619  0.875006106  0.604107970
     0.000000163  0.749999779  0.610337260
     0.000000314  0.874993039  0.719491118
     0.250000029  0.750001236  0.707850152
     0.347847184  0.125000000  0.287248371
     0.652152816  0.125000000  0.287248371
     0.500000000  0.000000000  0.245614076
     0.500000000  0.000000000  0.328882667
     0.597847184  0.125000000  0.393624186
     0.402152816  0.125000000  0.393624186
     0.250000000  0.000000000  0.351989890
     0.250000000  0.000000000  0.435258481
     0.347847184  0.125000000  0.500000000
     0.652152816  0.125000000  0.500000000
     0.500000000  0.000000000  0.458365705
     0.500000000  0.000000000  0.541634295
     0.600044200  0.125053468  0.606818760
     0.399954147  0.125054934  0.606818693
     0.250000305  0.999999917  0.565222754
     0.250000339  0.999999840  0.648605858
     0.343780728  0.124995298  0.718461968
     0.656220001  0.124994694  0.718461814
     0.499998080  0.999999061  0.671080349
     0.500000247  0.999999521  0.754614273
     0.347847184  0.375000000  0.287248371
     0.652152816  0.375000000  0.287248371
     0.500000000  0.250000000  0.245614076
     0.500000000  0.250000000  0.328882667
     0.597847184  0.375000000  0.393624186
     0.402152816  0.375000000  0.393624186
     0.250000000  0.250000000  0.351989890
     0.250000000  0.250000000  0.435258481
     0.347847184  0.375000000  0.500000000
     0.652152816  0.375000000  0.500000000
     0.500000000  0.250000000  0.458365705
     0.500000000  0.250000000  0.541634295
     0.600045098  0.374945406  0.606818791
     0.399954891  0.374945518  0.606818749
     0.250000095  0.249999894  0.565231528
     0.250000149  0.249999859  0.648652218
     0.343780568  0.375004831  0.718461963
     0.656218971  0.375003999  0.718461919
     0.499999695  0.249999837  0.671162557
     0.499999796  0.249999806  0.754642333
     0.347847184  0.625000000  0.287248371
     0.652152816  0.625000000  0.287248371
     0.500000000  0.500000000  0.245614076
     0.500000000  0.500000000  0.328882667
     0.597847184  0.625000000  0.393624186
     0.402152816  0.625000000  0.393624186
     0.250000000  0.500000000  0.351989890
     0.250000000  0.500000000  0.435258481
     0.347847184  0.625000000  0.500000000
     0.652152816  0.625000000  0.500000000
     0.500000000  0.500000000  0.458365705
     0.500000000  0.500000000  0.541634295
     0.600046583  0.625054992  0.606818611
     0.399955050  0.625054494  0.606818738
     0.249999999  0.500000072  0.565222726
     0.250000089  0.500000022  0.648606037
     0.343780077  0.624994642  0.718461969
     0.656219646  0.624997646  0.718461451
     0.500000025  0.499999582  0.671080333
     0.347847184  0.875000000  0.287248371
     0.652152816  0.875000000  0.287248371
     0.500000000  0.750000000  0.245614076
     0.500000000  0.750000000  0.328882667
     0.597847184  0.875000000  0.393624186
     0.402152816  0.875000000  0.393624186
     0.250000000  0.750000000  0.351989890
     0.250000000  0.750000000  0.435258481
     0.347847184  0.875000000  0.500000000
     0.652152816  0.875000000  0.500000000
     0.500000000  0.750000000  0.458365705
     0.500000000  0.750000000  0.541634295
     0.600045617  0.874945712  0.606818468
     0.399954257  0.874944456  0.606818660
     0.250000084  0.749999993  0.565231560
     0.250000176  0.749999936  0.648652202
     0.343780881  0.875004621  0.718462006
     0.656218912  0.875005563  0.718461475
     0.499999566  0.750000037  0.671162323
     0.500000352  0.750001033  0.754642232
     0.847847184  0.125000000  0.287248371
     0.152152816  0.125000000  0.287248371
     0.000000000  0.000000000  0.245614076
     0.000000000  0.000000000  0.328882667
     0.097847184  0.125000000  0.393624186
     0.902152816  0.125000000  0.393624186
     0.750000000  0.000000000  0.351989890
     0.750000000  0.000000000  0.435258481
     0.847847184  0.125000000  0.500000000
     0.152152816  0.125000000  0.500000000
     0.000000000  0.000000000  0.458365705
     0.000000000  0.000000000  0.541634295
     0.100045519  0.125054286  0.606818758
     0.899955503  0.125054289  0.606818761
     0.750000318  0.999999692  0.565222883
     0.750000500  0.999999546  0.648605556
     0.843780197  0.124994634  0.718461912
     0.156219311  0.124995292  0.718461967
     0.000000233  0.999999607  0.671080558
     0.999999800  0.999999477  0.754614378
     0.847847184  0.375000000  0.287248371
     0.152152816  0.375000000  0.287248371
     0.000000000  0.250000000  0.245614076
     0.000000000  0.250000000  0.328882667
     0.097847184  0.375000000  0.393624186
     0.902152816  0.375000000  0.393624186
     0.750000000  0.250000000  0.351989890
     0.750000000  0.250000000  0.435258481
     0.847847184  0.375000000  0.500000000
     0.152152816  0.375000000  0.500000000
     0.000000000  0.250000000  0.458365705
     0.000000000  0.250000000  0.541634295
     0.100045208  0.374945345  0.606818753
     0.899955130  0.374945444  0.606818765
     0.750000166  0.250000031  0.565231389
     0.750000196  0.250000270  0.648651632
     0.843781305  0.375003806  0.718461983
     0.156219377  0.375004874  0.718461985
     0.000000225  0.249999758  0.671162451
     0.000000400  0.250000101  0.754642226
     0.847847184  0.625000000  0.287248371
     0.152152816  0.625000000  0.287248371
     0.000000000  0.500000000  0.245614076
     0.000000000  0.500000000  0.328882667
     0.097847184  0.625000000  0.393624186
     0.902152816  0.625000000  0.393624186
     0.750000000  0.500000000  0.351989890
     0.750000000  0.500000000  0.435258481
     0.847847184  0.625000000  0.500000000
     0.152152816  0.625000000  0.500000000
     0.000000000  0.500000000  0.458365705
     0.000000000  0.500000000  0.541634295
     0.100045139  0.625054518  0.606818762
     0.899954894  0.625053868  0.606819010
     0.750000007  0.500000814  0.565223128
     0.750000140  0.500000067  0.648604791
     0.843780670  0.624997846  0.718461454
     0.156219818  0.624994624  0.718461946
     0.000000227  0.499999405  0.671080522
     0.999999968  0.499999452  0.754614496
     0.847847184  0.875000000  0.287248371
     0.152152816  0.875000000  0.287248371
     0.000000000  0.750000000  0.245614076
     0.000000000  0.750000000  0.328882667
     0.097847184  0.875000000  0.393624186
     0.902152816  0.875000000  0.393624186
     0.750000000  0.750000000  0.351989890
     0.750000000  0.750000000  0.435258481
     0.847847184  0.875000000  0.500000000
     0.152152816  0.875000000  0.500000000
     0.000000000  0.750000000  0.458365705
     0.000000000  0.750000000  0.541634295
     0.100045507  0.874945246  0.606818731
     0.899955321  0.874945960  0.606818886
     0.750010616  0.750000110  0.565231783
     0.750000010  0.750000733  0.648650593
     0.843781211  0.875005872  0.718461741
     0.156219079  0.875004596  0.718461999
     0.000000148  0.750000202  0.671162314
     0.999999930  0.750000709  0.754642195

  ion indices of the primitive-cell ions
   primitive index   ion index
                 1           1
                 2           2
                 3           3
                 4           4
                 5           5
                 6           6
                 7           7
                 8           8
                 9           9
                10          10
                11          11
                12          12
                13          13
                14          14
                15          15
                16          16
                17          17
                18          18
                19          19
                20          20
                21          21
                22          22
                23          23
                24          24
                25          25
                26          26
                27          27
                28          28
                29          29
                30          30
                31          31
                32          32
                33          33
                34          34
                35          35
                36          36
                37          37
                38          38
                39          39
                40          40
                41          41
                42          42
                43          43
                44          44
                45          45
                46          46
                47          47
                48          48
                49          49
                50          50
                51          51
                52          52
                53          53
                54          54
                55          55
                56          56
                57          57
                58          58
                59          59
                60          60
                61          61
                62          62
                63          63
                64          64
                65          65
                66          66
                67          67
                68          68
                69          69
                70          70
                71          71
                72          72
                73          73
                74          74
                75          75
                76          76
                77          77
                78          78
                79          79
                80          80
                81          81
                82          82
                83          83
                84          84
                85          85
                86          86
                87          87
                88          88
                89          89
                90          90
                91          91
                92          92
                93          93
                94          94
                95          95
                96          96
                97          97
                98          98
                99          99
               100         100
               101         101
               102         102
               103         103
               104         104
               105         105
               106         106
               107         107
               108         108
               109         109
               110         110
               111         111
               112         112
               113         113
               114         114
               115         115
               116         116
               117         117
               118         118
               119         119
               120         120
               121         121
               122         122
               123         123
               124         124
               125         125
               126         126
               127         127
               128         128
               129         129
               130         130
               131         131
               132         132
               133         133
               134         134
               135         135
               136         136
               137         137
               138         138
               139         139
               140         140
               141         141
               142         142
               143         143
               144         144
               145         145
               146         146
               147         147
               148         148
               149         149
               150         150
               151         151
               152         152
               153         153
               154         154
               155         155
               156         156
               157         157
               158         158
               159         159
               160         160
               161         161
               162         162
               163         163
               164         164
               165         165
               166         166
               167         167
               168         168
               169         169
               170         170
               171         171
               172         172
               173         173
               174         174
               175         175
               176         176
               177         177
               178         178
               179         179
               180         180
               181         181
               182         182
               183         183
               184         184
               185         185
               186         186
               187         187
               188         188
               189         189
               190         190
               191         191
               192         192
               193         193
               194         194
               195         195
               196         196
               197         197
               198         198
               199         199
               200         200
               201         201
               202         202
               203         203
               204         204
               205         205
               206         206
               207         207
               208         208
               209         209
               210         210
               211         211
               212         212
               213         213
               214         214
               215         215
               216         216
               217         217
               218         218
               219         219
               220         220
               221         221
               222         222
               223         223
               224         224
               225         225
               226         226
               227         227
               228         228
               229         229
               230         230
               231         231
               232         232
               233         233
               234         234
               235         235
               236         236
               237         237
               238         238
               239         239

----------------------------------------------------------------------------------------

 
 
 KPOINTS: pymatgen v2020.8.13 with grid density = 

Automatic generation of k-mesh.
 Grid dimensions read from file:
 generate k-points for:    2    2    1

 Generating k-lattice:

  Cartesian coordinates                     Fractional coordinates (reciprocal lattice)
     0.038482130  0.000000000  0.000000000     0.500000000  0.000000000  0.000000000
     0.000000000  0.042492748  0.000000000     0.000000000  0.500000000  0.000000000
     0.000000000  0.000000000  0.032748543     0.000000000  0.000000000  1.000000000

  Length of vectors
     0.038482130  0.042492748  0.032748543

  Shift w.r.t. Gamma in fractional coordinates (k-lattice)
     0.000000000  0.000000000  0.000000000

 
 Subroutine IBZKPT returns following result:
 ===========================================
 
 Found      4 irreducible k-points:
 
 Following reciprocal coordinates:
            Coordinates               Weight
  0.000000  0.000000  0.000000      1.000000
  0.500000  0.000000  0.000000      1.000000
  0.000000  0.500000  0.000000      1.000000
  0.500000  0.500000  0.000000      1.000000
 
 Following cartesian coordinates:
            Coordinates               Weight
  0.000000  0.000000  0.000000      1.000000
  0.038482  0.000000  0.000000      1.000000
  0.000000  0.042493  0.000000      1.000000
  0.038482  0.042493  0.000000      1.000000
 


--------------------------------------------------------------------------------------------------------




 Dimension of arrays:
   k-points           NKPTS =      4   k-points in BZ     NKDIM =      4   number of bands    NBANDS=   1148
   number of dos      NEDOS =    301   number of ions     NIONS =    239
   non local maximal  LDIM  =      6   non local SUM 2l+1 LMDIM =     18
   total plane-waves  NPLWV = ******
   max r-space proj   IRMAX =   3622   max aug-charges    IRDMAX=  16293
   dimension x,y,z NGX =    96 NGY =   90 NGZ =  224
   dimension x,y,z NGXF=   192 NGYF=  180 NGZF=  448
   support grid    NGXF=   192 NGYF=  180 NGZF=  448
   ions per type =              80 159
   NGX,Y,Z   is equivalent  to a cutoff of  12.28, 12.72, 12.20 a.u.
   NGXF,Y,Z  is equivalent  to a cutoff of  24.57, 25.43, 24.39 a.u.

 SYSTEM =  TiO2-rutile                             
 POSCAR =  Ti  O                                   

 Startparameter for this run:
   NWRITE =      2    write-flag & timer
   PREC   = accura    normal or accurate (medium, high low for compatibility)
   ISTART =      0    job   : 0-new  1-cont  2-samecut
   ICHARG =      2    charge: 1-file 2-atom 10-const
   ISPIN  =      1    spin polarized calculation?
   LNONCOLLINEAR =      F non collinear calculations
   LSORBIT =      F    spin-orbit coupling
   INIWAV =      1    electr: 0-lowe 1-rand  2-diag
   LASPH  =      T    aspherical Exc in radial PAW
   METAGGA=      F    non-selfconsistent MetaGGA calc.

 Electronic Relaxation 1
   ENCUT  =  500.0 eV  36.75 Ry    6.06 a.u.  23.69 21.45 55.67*2*pi/ulx,y,z
   ENINI  =  500.0     initial cutoff
   ENAUG  =  605.4 eV  augmentation charge cutoff
   NELM   =    500;   NELMIN=  4; NELMDL=  0     # of ELM steps 
   EDIFF  = 0.1E-04   stopping-criterion for ELM
   LREAL  =      T    real-space projection
   NLSPLINE    = F    spline interpolate recip. space projectors
   LCOMPAT=      F    compatible to vasp.4.4
   GGA_COMPAT  = T    GGA compatible to vasp.4.4-vasp.4.6
   LMAXPAW     = -100 max onsite density
   LMAXMIX     =    2 max onsite mixed and CHGCAR
   VOSKOWN=      0    Vosko Wilk Nusair interpolation
   ROPT   =   -0.00025  -0.00025
 Ionic relaxation
   EDIFFG = -.1E-01   stopping-criterion for IOM
   NSW    =      0    number of steps for IOM
   NBLOCK =      1;   KBLOCK =      1    inner block; outer block 
   IBRION =     -1    ionic relax: 0-MD 1-quasi-New 2-CG
   NFREE  =      0    steps in history (QN), initial steepest desc. (CG)
   ISIF   =      2    stress and relaxation
   IWAVPR =     10    prediction:  0-non 1-charg 2-wave 3-comb
   ISYM   =      0    0-nonsym 1-usesym 2-fastsym
   LCORR  =      T    Harris-Foulkes like correction to forces

   POTIM  = 0.5000    time-step for ionic-motion
   TEIN   =    0.0    initial temperature
   TEBEG  =    0.0;   TEEND  =   0.0 temperature during run
   SMASS  =  -3.00    Nose mass-parameter (am)
   estimated Nose-frequenzy (Omega)   =  0.10E-29 period in steps = 0.13E+47 mass=  -0.386E-26a.u.
   SCALEE = 1.0000    scale energy and forces
   NPACO  =    256;   APACO  = 16.0  distance and # of slots for P.C.
   PSTRESS=    0.0 pullay stress

  Mass of Ions in am
   POMASS =  47.88 16.00
  Ionic Valenz
   ZVAL   =  12.00  6.00
  Atomic Wigner-Seitz radii
   RWIGS  =  -1.00 -1.00
  virtual crystal weights 
   VCA    =   1.00  1.00
   NELECT =    1914.0000    total number of electrons
   NUPDOWN=      -1.0000    fix difference up-down

 DOS related values:
   EMIN   =  10.00;   EMAX   =-10.00  energy-range for DOS
   EFERMI =   0.00
   ISMEAR =     0;   SIGMA  =   0.05  broadening in eV -4-tet -1-fermi 0-gaus

 Electronic relaxation 2 (details)
   IALGO  =     68    algorithm
   LDIAG  =      T    sub-space diagonalisation (order eigenvalues)
   LSUBROT=      F    optimize rotation matrix (better conditioning)
   TURBO    =      0    0=normal 1=particle mesh
   IRESTART =      0    0=no restart 2=restart with 2 vectors
   NREBOOT  =      0    no. of reboots
   NMIN     =      0    reboot dimension
   EREF     =   0.00    reference energy to select bands
   IMIX   =      4    mixing-type and parameters
     AMIX     =   0.40;   BMIX     =  1.00
     AMIX_MAG =   1.60;   BMIX_MAG =  1.00
     AMIN     =   0.10
     WC   =   100.;   INIMIX=   1;  MIXPRE=   1;  MAXMIX= -45

 Intra band minimization:
   WEIMIN = 0.0000     energy-eigenvalue tresh-hold
   EBREAK =  0.22E-08  absolut break condition
   DEPER  =   0.30     relativ break condition  

   TIME   =   0.40     timestep for ELM

  volume/ion in A,a.u.               =      19.53       131.82
  Fermi-wavevector in a.u.,A,eV,Ry     =   1.216179  2.298245 20.124254  1.479091
  Thomas-Fermi vector in A             =   2.351541
 
 Write flags
   LWAVE        =      F    write WAVECAR
   LDOWNSAMPLE  =      F    k-point downsampling of WAVECAR
   LCHARG       =      F    write CHGCAR
   LVTOT        =      F    write LOCPOT, total local potential
   LVHAR        =      F    write LOCPOT, Hartree potential only
   LELF         =      F    write electronic localiz. function (ELF)
   LORBIT       =     11    0 simple, 1 ext, 2 COOP (PROOUT), +10 PAW based schemes


 Dipole corrections
   LMONO  =      F    monopole corrections only (constant potential shift)
   LDIPOL =      F    correct potential (dipole corrections)
   IDIPOL =      0    1-x, 2-y, 3-z, 4-all directions 
   EPSILON=  1.0000000 bulk dielectric constant

 Exchange correlation treatment:
   GGA     =    PS    GGA type
   LEXCH   =    14    internal setting for exchange type
   VOSKOWN=      0    Vosko Wilk Nusair interpolation
   LHFCALC =     F    Hartree Fock is set to
   LHFONE  =     F    Hartree Fock one center treatment
   AEXX    =    0.0000 exact exchange contribution

 Linear response parameters
   LEPSILON=     F    determine dielectric tensor
   LRPA    =     F    only Hartree local field effects (RPA)
   LNABLA  =     F    use nabla operator in PAW spheres
   LVEL    =     F    velocity operator in full k-point grid
   LINTERFAST=   F  fast interpolation
   KINTER  =     0    interpolate to denser k-point grid
   CSHIFT  =0.1000    complex shift for real part using Kramers Kronig
   OMEGAMAX=  -1.0    maximum frequency
   DEG_THRESHOLD= 0.2000000E-02 threshold for treating states as degnerate
   RTIME   =   -0.100 relaxation time in fs
  (WPLASMAI=    0.000 imaginary part of plasma frequency in eV, 0.658/RTIME)
   DFIELD  = 0.0000000 0.0000000 0.0000000 field for delta impulse in time
 
 Orbital magnetization related:
   ORBITALMAG=     F  switch on orbital magnetization
   LCHIMAG   =     F  perturbation theory with respect to B field
   DQ        =  0.001000  dq finite difference perturbation B field
   LLRAUG    =     F  two centre corrections for induced B field



--------------------------------------------------------------------------------------------------------


 Static calculation
 charge density and potential will be updated during run
 non-spin polarized calculation
 RMM-DIIS sequential band-by-band and
  variant of blocked Davidson during initial phase
 perform sub-space diagonalisation
    before iterative eigenvector-optimisation
 modified Broyden-mixing scheme, WC =      100.0
 initial mixing is a Kerker type mixing with AMIX =  0.4000 and BMIX =      1.0000
 Hartree-type preconditioning will be used
 using additional bands          191
 real space projection scheme for non local part
 use partial core corrections
 calculate Harris-corrections to forces 
   (improved forces if not selfconsistent)
 use gradient corrections 
 use of overlap-Matrix (Vanderbilt PP)
 Gauss-broadening in eV      SIGMA  =   0.05


--------------------------------------------------------------------------------------------------------


  energy-cutoff  :      500.00
  volume of cell :     4668.46
      direct lattice vectors                 reciprocal lattice vectors
    12.993043738  0.000000000  0.000000000     0.076964260  0.000000000  0.000000000
     0.000000000 11.766713800  0.000000000     0.000000000  0.084985495  0.000000000
     0.000000000  0.000000000 30.535709218     0.000000000  0.000000000  0.032748543

  length of vectors
    12.993043738 11.766713800 30.535709218     0.076964260  0.084985495  0.032748543


 
 k-points in units of 2pi/SCALE and weight: pymatgen v2020.8.13 with grid density = 
   0.00000000  0.00000000  0.00000000       0.250
   0.03848213  0.00000000  0.00000000       0.250
   0.00000000  0.04249275  0.00000000       0.250
   0.03848213  0.04249275  0.00000000       0.250
 
 k-points in reciprocal lattice and weights: pymatgen v2020.8.13 with grid density = 
   0.00000000  0.00000000  0.00000000       0.250
   0.50000000  0.00000000  0.00000000       0.250
   0.00000000  0.50000000  0.00000000       0.250
   0.50000000  0.50000000  0.00000000       0.250
 
 position of ions in fractional coordinates (direct lattice) 
   0.50000000  0.12500000  0.28724837
   0.25000000  0.00000000  0.28724837
   0.25000000  0.12500000  0.39362419
   0.50000000  0.00000000  0.39362419
   0.50000000  0.12500000  0.50000000
   0.25000000  0.00000000  0.50000000
   0.24999733  0.12499716  0.60410821
   0.49999397  0.00000068  0.61014982
   0.50000059  0.12500694  0.71949067
   0.75000056  0.00000146  0.70777064
   0.50000000  0.37500000  0.28724837
   0.25000000  0.25000000  0.28724837
   0.25000000  0.37500000  0.39362419
   0.50000000  0.25000000  0.39362419
   0.50000000  0.37500000  0.50000000
   0.25000000  0.25000000  0.50000000
   0.25000029  0.37500263  0.60410810
   0.50000219  0.25000021  0.61033716
   0.50000005  0.37499347  0.71949091
   0.74999992  0.24999864  0.70785037
   0.50000000  0.62500000  0.28724837
   0.25000000  0.50000000  0.28724837
   0.25000000  0.62500000  0.39362419
   0.50000000  0.50000000  0.39362419
   0.50000000  0.62500000  0.50000000
   0.25000000  0.50000000  0.50000000
   0.25000030  0.62499745  0.60410816
   0.49999875  0.49999940  0.61015021
   0.50000079  0.62500689  0.71949080
   0.75000025  0.50000347  0.70777136
   0.50000000  0.87500000  0.28724837
   0.25000000  0.75000000  0.28724837
   0.25000000  0.87500000  0.39362419
   0.50000000  0.75000000  0.39362419
   0.50000000  0.87500000  0.50000000
   0.25000000  0.75000000  0.50000000
   0.24999733  0.87500286  0.60410818
   0.50000139  0.74999971  0.61033728
   0.49999992  0.87499296  0.71949085
   0.74999983  0.74999397  0.70785194
   0.00000000  0.12500000  0.28724837
   0.75000000  0.00000000  0.28724837
   0.75000000  0.12500000  0.39362419
   0.00000000  0.00000000  0.39362419
   0.00000000  0.12500000  0.50000000
   0.75000000  0.00000000  0.50000000
   0.74999737  0.12499636  0.60410799
   0.99999935  0.00000051  0.61014996
   0.99999961  0.12500698  0.71949097
   0.25000007  0.99999971  0.70777084
   0.00000000  0.37500000  0.28724837
   0.75000000  0.25000000  0.28724837
   0.75000000  0.37500000  0.39362419
   0.00000000  0.25000000  0.39362419
   0.00000000  0.37500000  0.50000000
   0.75000000  0.25000000  0.50000000
   0.75000023  0.37500422  0.60410780
   0.99999961  0.25000014  0.61033721
   0.99999999  0.37499315  0.71949104
   0.25000001  0.24999888  0.70785007
   0.00000000  0.62500000  0.28724837
   0.75000000  0.50000000  0.28724837
   0.75000000  0.62500000  0.39362419
   0.00000000  0.50000000  0.39362419
   0.00000000  0.62500000  0.50000000
   0.75000000  0.50000000  0.50000000
   0.75000048  0.62499387  0.60410815
   0.00000038  0.49999957  0.61015020
   0.99999918  0.62500710  0.71949093
   0.25000003  0.49999956  0.70777081
   0.00000000  0.87500000  0.28724837
   0.75000000  0.75000000  0.28724837
   0.75000000  0.87500000  0.39362419
   0.00000000  0.75000000  0.39362419
   0.00000000  0.87500000  0.50000000
   0.75000000  0.75000000  0.50000000
   0.74999762  0.87500611  0.60410797
   0.00000016  0.74999978  0.61033726
   0.00000031  0.87499304  0.71949112
   0.25000003  0.75000124  0.70785015
   0.34784718  0.12500000  0.28724837
   0.65215282  0.12500000  0.28724837
   0.50000000  0.00000000  0.24561408
   0.50000000  0.00000000  0.32888267
   0.59784718  0.12500000  0.39362419
   0.40215282  0.12500000  0.39362419
   0.25000000  0.00000000  0.35198989
   0.25000000  0.00000000  0.43525848
   0.34784718  0.12500000  0.50000000
   0.65215282  0.12500000  0.50000000
   0.50000000  0.00000000  0.45836570
   0.50000000  0.00000000  0.54163430
   0.60004420  0.12505347  0.60681876
   0.39995415  0.12505493  0.60681869
   0.25000031  0.99999992  0.56522275
   0.25000034  0.99999984  0.64860586
   0.34378073  0.12499530  0.71846197
   0.65622000  0.12499469  0.71846181
   0.49999808  0.99999906  0.67108035
   0.50000025  0.99999952  0.75461427
   0.34784718  0.37500000  0.28724837
   0.65215282  0.37500000  0.28724837
   0.50000000  0.25000000  0.24561408
   0.50000000  0.25000000  0.32888267
   0.59784718  0.37500000  0.39362419
   0.40215282  0.37500000  0.39362419
   0.25000000  0.25000000  0.35198989
   0.25000000  0.25000000  0.43525848
   0.34784718  0.37500000  0.50000000
   0.65215282  0.37500000  0.50000000
   0.50000000  0.25000000  0.45836570
   0.50000000  0.25000000  0.54163430
   0.60004510  0.37494541  0.60681879
   0.39995489  0.37494552  0.60681875
   0.25000009  0.24999989  0.56523153
   0.25000015  0.24999986  0.64865222
   0.34378057  0.37500483  0.71846196
   0.65621897  0.37500400  0.71846192
   0.49999970  0.24999984  0.67116256
   0.49999980  0.24999981  0.75464233
   0.34784718  0.62500000  0.28724837
   0.65215282  0.62500000  0.28724837
   0.50000000  0.50000000  0.24561408
   0.50000000  0.50000000  0.32888267
   0.59784718  0.62500000  0.39362419
   0.40215282  0.62500000  0.39362419
   0.25000000  0.50000000  0.35198989
   0.25000000  0.50000000  0.43525848
   0.34784718  0.62500000  0.50000000
   0.65215282  0.62500000  0.50000000
   0.50000000  0.50000000  0.45836570
   0.50000000  0.50000000  0.54163430
   0.60004658  0.62505499  0.60681861
   0.39995505  0.62505449  0.60681874
   0.25000000  0.50000007  0.56522273
   0.25000009  0.50000002  0.64860604
   0.34378008  0.62499464  0.71846197
   0.65621965  0.62499765  0.71846145
   0.50000003  0.49999958  0.67108033
   0.34784718  0.87500000  0.28724837
   0.65215282  0.87500000  0.28724837
   0.50000000  0.75000000  0.24561408
   0.50000000  0.75000000  0.32888267
   0.59784718  0.87500000  0.39362419
   0.40215282  0.87500000  0.39362419
   0.25000000  0.75000000  0.35198989
   0.25000000  0.75000000  0.43525848
   0.34784718  0.87500000  0.50000000
   0.65215282  0.87500000  0.50000000
   0.50000000  0.75000000  0.45836570
   0.50000000  0.75000000  0.54163430
   0.60004562  0.87494571  0.60681847
   0.39995426  0.87494446  0.60681866
   0.25000008  0.74999999  0.56523156
   0.25000018  0.74999994  0.64865220
   0.34378088  0.87500462  0.71846201
   0.65621891  0.87500556  0.71846147
   0.49999957  0.75000004  0.67116232
   0.50000035  0.75000103  0.75464223
   0.84784718  0.12500000  0.28724837
   0.15215282  0.12500000  0.28724837
   0.00000000  0.00000000  0.24561408
   0.00000000  0.00000000  0.32888267
   0.09784718  0.12500000  0.39362419
   0.90215282  0.12500000  0.39362419
   0.75000000  0.00000000  0.35198989
   0.75000000  0.00000000  0.43525848
   0.84784718  0.12500000  0.50000000
   0.15215282  0.12500000  0.50000000
   0.00000000  0.00000000  0.45836570
   0.00000000  0.00000000  0.54163430
   0.10004552  0.12505429  0.60681876
   0.89995550  0.12505429  0.60681876
   0.75000032  0.99999969  0.56522288
   0.75000050  0.99999955  0.64860556
   0.84378020  0.12499463  0.71846191
   0.15621931  0.12499529  0.71846197
   0.00000023  0.99999961  0.67108056
   0.99999980  0.99999948  0.75461438
   0.84784718  0.37500000  0.28724837
   0.15215282  0.37500000  0.28724837
   0.00000000  0.25000000  0.24561408
   0.00000000  0.25000000  0.32888267
   0.09784718  0.37500000  0.39362419
   0.90215282  0.37500000  0.39362419
   0.75000000  0.25000000  0.35198989
   0.75000000  0.25000000  0.43525848
   0.84784718  0.37500000  0.50000000
   0.15215282  0.37500000  0.50000000
   0.00000000  0.25000000  0.45836570
   0.00000000  0.25000000  0.54163430
   0.10004521  0.37494534  0.60681875
   0.89995513  0.37494544  0.60681876
   0.75000017  0.25000003  0.56523139
   0.75000020  0.25000027  0.64865163
   0.84378131  0.37500381  0.71846198
   0.15621938  0.37500487  0.71846199
   0.00000022  0.24999976  0.67116245
   0.00000040  0.25000010  0.75464223
   0.84784718  0.62500000  0.28724837
   0.15215282  0.62500000  0.28724837
   0.00000000  0.50000000  0.24561408
   0.00000000  0.50000000  0.32888267
   0.09784718  0.62500000  0.39362419
   0.90215282  0.62500000  0.39362419
   0.75000000  0.50000000  0.35198989
   0.75000000  0.50000000  0.43525848
   0.84784718  0.62500000  0.50000000
   0.15215282  0.62500000  0.50000000
   0.00000000  0.50000000  0.45836570
   0.00000000  0.50000000  0.54163430
   0.10004514  0.62505452  0.60681876
   0.89995489  0.62505387  0.60681901
   0.75000001  0.50000081  0.56522313
   0.75000014  0.50000007  0.64860479
   0.84378067  0.62499785  0.71846145
   0.15621982  0.62499462  0.71846195
   0.00000023  0.49999940  0.67108052
   0.99999997  0.49999945  0.75461450
   0.84784718  0.87500000  0.28724837
   0.15215282  0.87500000  0.28724837
   0.00000000  0.75000000  0.24561408
   0.00000000  0.75000000  0.32888267
   0.09784718  0.87500000  0.39362419
   0.90215282  0.87500000  0.39362419
   0.75000000  0.75000000  0.35198989
   0.75000000  0.75000000  0.43525848
   0.84784718  0.87500000  0.50000000
   0.15215282  0.87500000  0.50000000
   0.00000000  0.75000000  0.45836570
   0.00000000  0.75000000  0.54163430
   0.10004551  0.87494525  0.60681873
   0.89995532  0.87494596  0.60681889
   0.75001062  0.75000011  0.56523178
   0.75000001  0.75000073  0.64865059
   0.84378121  0.87500587  0.71846174
   0.15621908  0.87500460  0.71846200
   0.00000015  0.75000020  0.67116231
   0.99999993  0.75000071  0.75464219
 
 position of ions in cartesian coordinates  (Angst):
   6.49652187  1.47083923  8.77133274
   3.24826093  0.00000000  8.77133274
   3.24826093  1.47083923 12.01959367
   6.49652187  0.00000000 12.01959367
   6.49652187  1.47083923 15.26785461
   3.24826093  0.00000000 15.26785461
   3.24822621  1.47080579 18.44687265
   6.49644346  0.00000801 18.63135756
   6.49652955  1.47092086 21.97015803
   9.74479003  0.00001723 21.61227847
   6.49652187  4.41251768  8.77133274
   3.24826093  2.94167845  8.77133274
   3.24826093  4.41251768 12.01959367
   6.49652187  2.94167845 12.01959367
   6.49652187  4.41251768 15.26785461
   3.24826093  2.94167845 15.26785461
   3.24826472  4.41254866 18.44686918
   6.49655030  2.94168087 18.63707815
   6.49652253  4.41244084 21.97016521
   9.74478179  2.94166250 21.61471321
   6.49652187  7.35419613  8.77133274
   3.24826093  5.88335690  8.77133274
   3.24826093  7.35419613 12.01959367
   6.49652187  5.88335690 12.01959367
   6.49652187  7.35419613 15.26785461
   3.24826093  5.88335690 15.26785461
   3.24826478  7.35416617 18.44687099
   6.49650558  5.88334988 18.63136944
   6.49653210  7.35427724 21.97016181
   9.74478603  5.88339770 21.61230039
   6.49652187 10.29587458  8.77133274
   3.24826093  8.82503535  8.77133274
   3.24826093 10.29587458 12.01959367
   6.49652187  8.82503535 12.01959367
   6.49652187 10.29587458 15.26785461
   3.24826093  8.82503535 15.26785461
   3.24822630 10.29590823 18.44687186
   6.49653998  8.82503200 18.63708159
   6.49652086 10.29579173 21.97016324
   9.74478061  8.82496439 21.61476092
   0.00000000  1.47083923  8.77133274
   9.74478280  0.00000000  8.77133274
   9.74478280  1.47083923 12.01959367
   0.00000000  0.00000000 12.01959367
   0.00000000  1.47083923 15.26785461
   9.74478280  0.00000000 15.26785461
   9.74474863  1.47079641 18.44686603
  12.99303525  0.00000596 18.63136171
  12.99303867  1.47092139 21.97016707
   3.24826187 11.76671035 21.61228455
   0.00000000  4.41251768  8.77133274
   9.74478280  2.94167845  8.77133274
   9.74478280  4.41251768 12.01959367
   0.00000000  2.94167845 12.01959367
   0.00000000  4.41251768 15.26785461
   9.74478280  2.94167845 15.26785461
   9.74478581  4.41256731 18.44686009
  12.99303872  2.94168004 18.63707960
  12.99304359  4.41243704 21.97016906
   3.24826105  2.94166521 21.61470384
   0.00000000  7.35419613  8.77133274
   9.74478280  5.88335690  8.77133274
   9.74478280  7.35419613 12.01959367
   0.00000000  5.88335690 12.01959367
   0.00000000  7.35419613 15.26785461
   9.74478280  5.88335690 15.26785461
   9.74478901  7.35412398 18.44687070
   0.00000488  5.88335181 18.63136922
  12.99303306  7.35427971 21.97016592
   3.24826137  5.88335169 21.61228371
   0.00000000 10.29587458  8.77133274
   9.74478280  8.82503535  8.77133274
   9.74478280 10.29587458 12.01959367
   0.00000000  8.82503535 12.01959367
   0.00000000 10.29587458 15.26785461
   9.74478280  8.82503535 15.26785461
   9.74475187 10.29594643 18.44686530
   0.00000211  8.82503274 18.63708110
   0.00000408 10.29579266 21.97017155
   3.24826131  8.82504989 21.61470640
   4.51959367  1.47083923  8.77133274
   8.47345006  1.47083923  8.77133274
   6.49652187  0.00000000  7.50000000
   6.49652187  0.00000000 10.04266548
   7.76785461  1.47083923 12.01959367
   5.22518913  1.47083923 12.01959367
   3.24826093  0.00000000 10.74826093
   3.24826093  0.00000000 13.29092641
   4.51959367  1.47083923 15.26785461
   8.47345006  1.47083923 15.26785461
   6.49652187  0.00000000 13.99652187
   6.49652187  0.00000000 16.53918735
   7.79640053  1.47146836 18.52964119
   5.19662172  1.47148562 18.52963916
   3.24826490 11.76671282 17.25947765
   3.24826534 11.76671192 19.80563987
   4.46675804  1.47078390 21.93874574
   8.52629517  1.47077679 21.93874104
   6.49649693 11.76670276 20.49191439
   6.49652508 11.76670817 23.04268201
   4.51959367  4.41251768  8.77133274
   8.47345006  4.41251768  8.77133274
   6.49652187  2.94167845  7.50000000
   6.49652187  2.94167845 10.04266548
   7.76785461  4.41251768 12.01959367
   5.22518913  4.41251768 12.01959367
   3.24826093  2.94167845 10.74826093
   3.24826093  2.94167845 13.29092641
   4.51959367  4.41251768 15.26785461
   8.47345006  4.41251768 15.26785461
   6.49652187  2.94167845 13.99652187
   6.49652187  2.94167845 16.53918735
   7.79641221  4.41187529 18.52964213
   5.19663139  4.41187660 18.52964087
   3.24826217  2.94167720 17.25974557
   3.24826287  2.94167679 19.80705550
   4.46675595  4.41257452 21.93874559
   8.52628179  4.41256474 21.93874424
   6.49651791  2.94167653 20.49442468
   6.49651922  2.94167617 23.04353883
   4.51959367  7.35419613  8.77133274
   8.47345006  7.35419613  8.77133274
   6.49652187  5.88335690  7.50000000
   6.49652187  5.88335690 10.04266548
   7.76785461  7.35419613 12.01959367
   5.22518913  7.35419613 12.01959367
   3.24826093  5.88335690 10.74826093
   3.24826093  5.88335690 13.29092641
   4.51959367  7.35419613 15.26785461
   8.47345006  7.35419613 15.26785461
   6.49652187  5.88335690 13.99652187
   6.49652187  5.88335690 16.53918735
   7.79643149  7.35484320 18.52963665
   5.19663346  7.35483734 18.52964055
   3.24826092  5.88335775 17.25947679
   3.24826209  5.88335716 19.80564534
   4.46674958  7.35413308 21.93874576
   8.52629056  7.35416843 21.93872994
   6.49652220  5.88335198 20.49191390
   4.51959367 10.29587458  8.77133274
   8.47345006 10.29587458  8.77133274
   6.49652187  8.82503535  7.50000000
   6.49652187  8.82503535 10.04266548
   7.76785461 10.29587458 12.01959367
   5.22518913 10.29587458 12.01959367
   3.24826093  8.82503535 10.74826093
   3.24826093  8.82503535 13.29092641
   4.51959367 10.29587458 15.26785461
   8.47345006 10.29587458 15.26785461
   6.49652187  8.82503535 13.99652187
   6.49652187  8.82503535 16.53918735
   7.79641895 10.29523579 18.52963228
   5.19662316 10.29522100 18.52963814
   3.24826203  8.82503526 17.25974655
   3.24826323  8.82503460 19.80705502
   4.46676003 10.29592895 21.93874690
   8.52628102 10.29594003 21.93873068
   6.49651623  8.82503578 20.49441752
   6.49652644  8.82504750 23.04353576
  11.01611554  1.47083923  8.77133274
   1.97692819  1.47083923  8.77133274
   0.00000000  0.00000000  7.50000000
   0.00000000  0.00000000 10.04266548
   1.27133274  1.47083923 12.01959367
  11.72171100  1.47083923 12.01959367
   9.74478280  0.00000000 10.74826093
   9.74478280  0.00000000 13.29092641
  11.01611554  1.47083923 15.26785461
   1.97692819  1.47083923 15.26785461
   0.00000000  0.00000000 13.99652187
   0.00000000  0.00000000 16.53918735
   1.29989581  1.47147799 18.52964115
  11.69316122  1.47147803 18.52964123
   9.74478694 11.76671017 17.25948161
   9.74478930 11.76670846 19.80563067
  10.96327300  1.47077608 21.93874402
   2.02976434  1.47078383 21.93874570
   0.00000303 11.76670917 20.49192079
  12.99304113 11.76670764 23.04268522
  11.01611554  4.41251768  8.77133274
   1.97692819  4.41251768  8.77133274
   0.00000000  2.94167845  7.50000000
   0.00000000  2.94167845 10.04266548
   1.27133274  4.41251768 12.01959367
  11.72171100  4.41251768 12.01959367
   9.74478280  2.94167845 10.74826093
   9.74478280  2.94167845 13.29092641
  11.01611554  4.41251768 15.26785461
   1.97692819  4.41251768 15.26785461
   0.00000000  2.94167845 13.99652187
   0.00000000  2.94167845 16.53918735
   1.29989177  4.41187456 18.52964099
  11.69315636  4.41187573 18.52964135
   9.74478497  2.94167881 17.25974135
   9.74478535  2.94168163 19.80703761
  10.96328740  4.41256246 21.93874621
   2.02976520  4.41257502 21.93874626
   0.00000292  2.94167560 20.49442145
   0.00000520  2.94167964 23.04353558
  11.01611554  7.35419613  8.77133274
   1.97692819  7.35419613  8.77133274
   0.00000000  5.88335690  7.50000000
   0.00000000  5.88335690 10.04266548
   1.27133274  7.35419613 12.01959367
  11.72171100  7.35419613 12.01959367
   9.74478280  5.88335690 10.74826093
   9.74478280  5.88335690 13.29092641
  11.01611554  7.35419613 15.26785461
   1.97692819  7.35419613 15.26785461
   0.00000000  5.88335690 13.99652187
   0.00000000  5.88335690 16.53918735
   1.29989087  7.35483762 18.52964127
  11.69315330  7.35482997 18.52964885
   9.74478289  5.88336648 17.25948908
   9.74478463  5.88335768 19.80560730
  10.96327915  7.35417078 21.93873003
   2.02977093  7.35413286 21.93874508
   0.00000294  5.88334989 20.49191969
  12.99304332  5.88335046 23.04268883
  11.01611554 10.29587458  8.77133274
   1.97692819 10.29587458  8.77133274
   0.00000000  8.82503535  7.50000000
   0.00000000  8.82503535 10.04266548
   1.27133274 10.29587458 12.01959367
  11.72171100 10.29587458 12.01959367
   9.74478280  8.82503535 10.74826093
   9.74478280  8.82503535 13.29092641
  11.01611554 10.29587458 15.26785461
   1.97692819 10.29587458 15.26785461
   0.00000000  8.82503535 13.99652187
   0.00000000  8.82503535 16.53918735
   1.29989565 10.29523030 18.52964030
  11.69315885 10.29523870 18.52964504
   9.74492074  8.82503665 17.25975338
   9.74478293  8.82504397 19.80700588
  10.96328618 10.29594367 21.93873882
   2.02976133 10.29592866 21.93874668
   0.00000192  8.82503773 20.49441725
  12.99304282  8.82504369 23.04353462
 


--------------------------------------------------------------------------------------------------------


 k-point   1 :   0.0000 0.0000 0.0000  plane waves:  118455
 k-point   2 :   0.5000 0.0000 0.0000  plane waves:  118608
 k-point   3 :   0.0000 0.5000 0.0000  plane waves:  118522
 k-point   4 :   0.5000 0.5000 0.0000  plane waves:  118440

 maximum and minimum number of plane-waves per node :      5964     5894

 maximum number of plane-waves:    118608
 maximum index in each direction: 
   IXMAX=   23   IYMAX=   21   IZMAX=   55
   IXMIN=  -24   IYMIN=  -21   IZMIN=  -55


 real space projection operators:
  total allocation   :      61075.81 KBytes
  max/ min on nodes  :       3582.81       1770.69


 parallel 3D FFT for wavefunctions:
    minimum data exchange during FFTs selected (reduces bandwidth)
 parallel 3D FFT for charge:
    minimum data exchange during FFTs selected (reduces bandwidth)


 total amount of memory used by VASP MPI-rank0   188312. kBytes
=======================================================================

   base      :      30000. kBytes
   nonlr-proj:      18304. kBytes
   fftplans  :      10810. kBytes
   grid      :      17629. kBytes
   one-center:        186. kBytes
   wavefun   :     111383. kBytes
 
     INWAV:  cpu time    0.0000: real time    0.0000
 Broyden mixing: mesh for mixing (old mesh)
   NGX = 47   NGY = 43   NGZ =111
  (NGX  =192   NGY  =180   NGZ  =448)
  gives a total of 224331 points

 initial charge density was supplied:
 charge density of overlapping atoms calculated
 number of electron    1914.0000000 magnetization 
 keeping initial charge density in first step


--------------------------------------------------------------------------------------------------------


 Maximum index for non-local projection operator          283
 Maximum index for augmentation-charges          768 (set IRDMAX)


--------------------------------------------------------------------------------------------------------


 First call to EWALD:  gamma=   0.106
 Maximum number of real-space cells 3x 4x 2
 Maximum number of reciprocal cells 2x 2x 5

    FEWALD:  cpu time    0.0100: real time    0.0101


--------------------------------------- Iteration      1(   1)  ---------------------------------------


    POTLOK:  cpu time    0.1577: real time    0.1600
    SETDIJ:  cpu time    0.2151: real time    0.2157
     EDDAV:  cpu time   54.8043: real time   54.9441
       DOS:  cpu time    0.0032: real time    0.0032
    --------------------------------------------
[...]
      6.49652      8.82504     16.53919        -0.000008     -0.002816      0.151922
      7.79642     10.29524     18.52963        -0.108209     -0.033496      0.082030
      5.19662     10.29522     18.52964         0.107961     -0.033501      0.082076
      3.24826      8.82504     17.25975         0.016325     -0.021965      0.057363
      3.24826      8.82503     19.80706         0.034846     -0.026281      0.295234
      4.46676     10.29593     21.93875         0.171945     -0.056532      0.063222
      8.52628     10.29594     21.93873        -0.171830     -0.056723      0.063319
      6.49652      8.82504     20.49442         0.000029     -0.427803      0.888138
      6.49653      8.82505     23.04354        -0.000009     -0.776273      0.345219
     11.01612      1.47084      8.77133        -1.795651      0.004461     -0.782258
      1.97693      1.47084      8.77133         1.795682      0.004442     -0.782297
      0.00000      0.00000      7.50000        -0.000006      0.000002      2.062721
      0.00000      0.00000     10.04267        -0.000012      0.000005      1.707558
      1.27133      1.47084     12.01959         0.398878      0.002974      0.063785
     11.72171      1.47084     12.01959        -0.398968      0.002971      0.063802
      9.74478      0.00000     10.74826        -0.000722      0.000003     -1.333950
      9.74478      0.00000     13.29093        -0.001379      0.000005     -0.036107
     11.01612      1.47084     15.26785        -0.442642      0.003223      0.112562
      1.97693      1.47084     15.26785         0.442601      0.003263      0.112582
      0.00000      0.00000     13.99652        -0.000006      0.000020     -0.012572
      0.00000      0.00000     16.53919         0.000036      0.000025      0.080703
      1.29990      1.47148     18.52964        -0.008665      0.006245      0.038276
     11.69316      1.47148     18.52964         0.008576      0.006191      0.038280
      9.74479     11.76671     17.25948        -0.013468      0.000363      0.050661
      9.74479     11.76671     19.80563        -0.016245      0.000273      0.235767
     10.96327      1.47078     21.93874        -0.102829      0.061392      0.021788
      2.02976      1.47078     21.93875         0.103019      0.061114      0.021707
      0.00000     11.76671     20.49192         0.000057      0.000119      0.202046
     12.99304     11.76671     23.04269         0.000041      0.000257      0.028697
     11.01612      4.41252      8.77133        -1.795580     -0.004758     -0.782271
      1.97693      4.41252      8.77133         1.795629     -0.004826     -0.782286
      0.00000      2.94168      7.50000        -0.000004     -0.000024      2.063423
      0.00000      2.94168     10.04267        -0.000010     -0.000038      1.707527
      1.27133      4.41252     12.01959         0.398422     -0.003277      0.063785
     11.72171      4.41252     12.01959        -0.398425     -0.003281      0.063792
      9.74478      2.94168     10.74826        -0.000195     -0.000459     -1.336942
      9.74478      2.94168     13.29093        -0.001138     -0.000272     -0.035077
     11.01612      4.41252     15.26785        -0.441936     -0.002306      0.113019
      1.97693      4.41252     15.26785         0.441888     -0.002339      0.112999
      0.00000      2.94168     13.99652        -0.000013      0.000761     -0.013051
      0.00000      2.94168     16.53919        -0.000005      0.002288      0.068885
      1.29989      4.41187     18.52964         0.008847      0.009155      0.041137
     11.69316      4.41188     18.52964        -0.008843      0.009179      0.041094
      9.74478      2.94168     17.25974        -0.016392      0.021966      0.057443
      9.74479      2.94168     19.80704        -0.034925      0.026282      0.295713
     10.96329      4.41256     21.93875        -0.099384      0.036278      0.043445
      2.02977      4.41258     21.93875         0.098932      0.035719      0.043484
      0.00000      2.94168     20.49442        -0.000014      0.008692      0.197224
      0.00001      2.94168     23.04354        -0.000061      0.016348      0.030931
     11.01612      7.35420      8.77133        -1.795647      0.004783     -0.782264
      1.97693      7.35420      8.77133         1.795567      0.004761     -0.782277
      0.00000      5.88336      7.50000        -0.000013     -0.000003      2.062576
      0.00000      5.88336     10.04267        -0.000010     -0.000003      1.707453
      1.27133      7.35420     12.01959         0.398411      0.003280      0.063768
     11.72171      7.35420     12.01959        -0.398457      0.003281      0.063789
      9.74478      5.88336     10.74826        -0.000842      0.000040     -1.334653
      9.74478      5.88336     13.29093        -0.001576      0.000045     -0.035392
     11.01612      7.35420     15.26785        -0.441917      0.002193      0.112904
      1.97693      7.35420     15.26785         0.441910      0.002330      0.113000
      0.00000      5.88336     13.99652        -0.000002     -0.000022     -0.011814
      0.00000      5.88336     16.53919        -0.000007     -0.000035      0.089185
      1.29989      7.35484     18.52964         0.008830     -0.009245      0.041136
     11.69315      7.35483     18.52965        -0.008374     -0.009322      0.041165
      9.74478      5.88337     17.25949        -0.008666     -0.000416      0.058109
      9.74478      5.88336     19.80561        -0.011566     -0.000094      0.367438
     10.96328      7.35417     21.93873        -0.098690     -0.036457      0.043779
      2.02977      7.35413     21.93875         0.098661     -0.035682      0.043520
      0.00000      5.88335     20.49192        -0.000072      0.000098      0.198767
     12.99304      5.88335     23.04269        -0.000116      0.000354      0.045069
     11.01612     10.29587      8.77133        -1.795677     -0.004460     -0.782240
      1.97693     10.29587      8.77133         1.795619     -0.004418     -0.782293
      0.00000      8.82504      7.50000        -0.000005      0.000025      2.063432
      0.00000      8.82504     10.04267        -0.000015      0.000040      1.707527
      1.27133     10.29587     12.01959         0.398886     -0.002977      0.063774
     11.72171     10.29587     12.01959        -0.398956     -0.002969      0.063801
      9.74478      8.82504     10.74826        -0.000200      0.000390     -1.336847
      9.74478      8.82504     13.29093        -0.001171      0.000198     -0.035160
     11.01612     10.29587     15.26785        -0.442614     -0.003103      0.112456
      1.97693     10.29587     15.26785         0.442620     -0.003264      0.112581
      0.00000      8.82504     13.99652        -0.000012     -0.000769     -0.013065
      0.00000      8.82504     16.53919         0.000026     -0.002302      0.068819
      1.29990     10.29523     18.52964        -0.008642     -0.006111      0.038266
     11.69316     10.29524     18.52965         0.009032     -0.006014      0.038309
      9.74492      8.82504     17.25975        -0.016373     -0.021976      0.057127
      9.74478      8.82504     19.80701        -0.034922     -0.026539      0.297500
     10.96329     10.29594     21.93874        -0.103313     -0.061459      0.021822
      2.02976     10.29593     21.93875         0.103206     -0.061152      0.021704
      0.00000      8.82504     20.49442         0.000022     -0.008862      0.197431
     12.99304      8.82504     23.04353        -0.000040     -0.016916      0.030992
 -----------------------------------------------------------------------------------
    total drift:                                0.001891     -0.000116      0.089299


--------------------------------------------------------------------------------------------------------



  FREE ENERGIE OF THE ION-ELECTRON SYSTEM (eV)
  ---------------------------------------------------
  free  energy   TOTEN  =     -2212.74139934 eV

  energy  without entropy=    -2212.70552848  energy(sigma->0) =    -2212.72346391
 


--------------------------------------------------------------------------------------------------------


    POTLOK:  cpu time    0.3561: real time    0.3570


--------------------------------------------------------------------------------------------------------


     LOOP+:  cpu time 1968.1307: real time 1973.3868
    4ORBIT:  cpu time    0.0000: real time    0.0000



 total charge

# of ion       s       p       d       tot
------------------------------------------
    1        2.224   6.309   1.780  10.314
    2        2.207   6.257   1.755  10.218
    3        2.227   6.309   1.737  10.273
    4        2.228   6.311   1.740  10.279
    5        2.226   6.311   1.743  10.280
    6        2.225   6.307   1.739  10.271
    7        2.231   6.316   1.769  10.316
    8        2.226   6.301   1.742  10.269
    9        2.226   6.297   1.802  10.325
   10        2.236   6.291   1.838  10.365
   11        2.224   6.309   1.780  10.314
   12        2.207   6.257   1.755  10.218
   13        2.227   6.309   1.737  10.273
   14        2.228   6.312   1.740  10.279
   15        2.226   6.311   1.743  10.281
   16        2.225   6.307   1.739  10.271
   17        2.231   6.316   1.769  10.316
   18        2.226   6.301   1.747  10.274
   19        2.196   6.224   1.787  10.207
   20        2.236   6.290   1.840  10.366
   21        2.224   6.309   1.780  10.314
   22        2.207   6.257   1.755  10.218
   23        2.227   6.309   1.737  10.273
   24        2.228   6.311   1.740  10.279
   25        2.226   6.311   1.743  10.281
   26        2.225   6.307   1.739  10.271
   27        2.231   6.316   1.770  10.316
   28        2.225   6.300   1.742  10.268
   29        2.196   6.224   1.787  10.207
   30        2.236   6.291   1.845  10.372
   31        2.224   6.309   1.780  10.314
   32        2.207   6.257   1.755  10.218
   33        2.227   6.309   1.737  10.273
   34        2.228   6.312   1.740  10.279
   35        2.226   6.311   1.743  10.280
   36        2.225   6.307   1.739  10.271
   37        2.231   6.316   1.769  10.316
   38        2.226   6.301   1.747  10.274
   39        2.226   6.297   1.802  10.325
   40        2.236   6.290   1.840  10.366
   41        2.224   6.309   1.780  10.314
   42        2.207   6.257   1.755  10.218
   43        2.227   6.309   1.737  10.273
   44        2.228   6.312   1.740  10.279
   45        2.226   6.311   1.743  10.280
   46        2.225   6.307   1.739  10.271
   47        2.231   6.316   1.769  10.316
   48        2.226   6.301   1.743  10.270
   49        2.225   6.297   1.809  10.332
   50        2.236   6.291   1.838  10.365
   51        2.224   6.309   1.780  10.314
   52        2.207   6.257   1.755  10.218
   53        2.227   6.309   1.737  10.273
   54        2.228   6.312   1.740  10.279
   55        2.226   6.311   1.743  10.280
   56        2.225   6.307   1.739  10.271
   57        2.231   6.316   1.770  10.316
   58        2.226   6.302   1.744  10.272
   59        2.226   6.297   1.810  10.333
   60        2.236   6.290   1.840  10.366
   61        2.224   6.309   1.780  10.314
   62        2.207   6.257   1.755  10.218
   63        2.227   6.309   1.737  10.273
   64        2.228   6.312   1.740  10.279
   65        2.226   6.311   1.743  10.280
   66        2.225   6.307   1.739  10.271
   67        2.231   6.316   1.770  10.316
   68        2.226   6.301   1.743  10.270
   69        2.226   6.297   1.810  10.333
   70        2.236   6.291   1.845  10.372
   71        2.224   6.309   1.780  10.314
   72        2.207   6.257   1.755  10.218
   73        2.227   6.309   1.737  10.273
   74        2.228   6.312   1.740  10.279
   75        2.226   6.311   1.743  10.280
   76        2.225   6.307   1.739  10.271
   77        2.231   6.316   1.769  10.316
   78        2.226   6.302   1.744  10.272
   79        2.225   6.297   1.809  10.332
   80        2.236   6.290   1.840  10.366
   81        1.572   3.471   0.000   5.043
   82        1.572   3.471   0.000   5.043
   83        1.580   3.361   0.000   4.941
   84        1.570   3.491   0.000   5.060
   85        1.569   3.486   0.000   5.055
   86        1.569   3.486   0.000   5.055
   87        1.568   3.475   0.000   5.043
   88        1.569   3.482   0.000   5.052
   89        1.570   3.484   0.000   5.054
   90        1.570   3.484   0.000   5.054
   91        1.570   3.487   0.000   5.057
   92        1.568   3.464   0.000   5.032
   93        1.568   3.482   0.000   5.050
   94        1.568   3.482   0.000   5.050
   95        1.573   3.504   0.000   5.078
   96        1.571   3.502   0.000   5.073
   97        1.567   3.479   0.000   5.046
   98        1.567   3.479   0.000   5.046
   99        1.567   3.459   0.000   5.025
  100        1.588   3.430   0.000   5.018
  101        1.572   3.471   0.000   5.043
  102        1.572   3.471   0.000   5.043
  103        1.580   3.361   0.000   4.941
  104        1.570   3.491   0.000   5.060
  105        1.569   3.486   0.000   5.055
  106        1.569   3.486   0.000   5.055
  107        1.568   3.475   0.000   5.043
  108        1.569   3.482   0.000   5.052
  109        1.570   3.484   0.000   5.054
  110        1.570   3.484   0.000   5.054
  111        1.570   3.487   0.000   5.057
  112        1.568   3.462   0.000   5.030
  113        1.568   3.482   0.000   5.050
  114        1.568   3.482   0.000   5.050
  115        1.573   3.504   0.000   5.078
  116        1.571   3.501   0.000   5.072
  117        1.566   3.481   0.000   5.047
  118        1.566   3.481   0.000   5.047
  119        1.569   3.449   0.000   5.017
  120        1.587   3.433   0.000   5.019
  121        1.572   3.471   0.000   5.043
  122        1.572   3.471   0.000   5.043
  123        1.580   3.361   0.000   4.941
  124        1.570   3.491   0.000   5.060
  125        1.569   3.486   0.000   5.055
  126        1.569   3.486   0.000   5.055
  127        1.568   3.475   0.000   5.043
  128        1.569   3.482   0.000   5.052
  129        1.570   3.484   0.000   5.054
  130        1.570   3.484   0.000   5.054
  131        1.570   3.487   0.000   5.057
  132        1.568   3.463   0.000   5.031
  133        1.568   3.482   0.000   5.050
  134        1.568   3.482   0.000   5.050
  135        1.573   3.504   0.000   5.078
  136        1.571   3.501   0.000   5.073
  137        1.566   3.481   0.000   5.047
  138        1.566   3.481   0.000   5.047
  139        1.567   3.453   0.000   5.020
  140        1.572   3.471   0.000   5.043
  141        1.572   3.471   0.000   5.043
  142        1.580   3.361   0.000   4.941
  143        1.570   3.491   0.000   5.060
  144        1.569   3.486   0.000   5.055
  145        1.569   3.486   0.000   5.055
  146        1.568   3.475   0.000   5.043
  147        1.569   3.482   0.000   5.052
  148        1.570   3.484   0.000   5.054
  149        1.570   3.484   0.000   5.054
  150        1.570   3.487   0.000   5.057
  151        1.568   3.462   0.000   5.030
  152        1.568   3.481   0.000   5.050
  153        1.568   3.482   0.000   5.050
  154        1.573   3.504   0.000   5.078
  155        1.571   3.501   0.000   5.072
  156        1.567   3.479   0.000   5.046
  157        1.567   3.479   0.000   5.046
  158        1.569   3.449   0.000   5.017
  159        1.587   3.433   0.000   5.019
  160        1.572   3.471   0.000   5.043
  161        1.572   3.471   0.000   5.043
  162        1.580   3.361   0.000   4.941
  163        1.570   3.491   0.000   5.060
  164        1.569   3.486   0.000   5.055
  165        1.569   3.486   0.000   5.055
  166        1.568   3.475   0.000   5.043
  167        1.569   3.482   0.000   5.052
  168        1.570   3.484   0.000   5.054
  169        1.570   3.484   0.000   5.054
  170        1.570   3.487   0.000   5.057
  171        1.568   3.463   0.000   5.032
  172        1.568   3.482   0.000   5.050
  173        1.568   3.482   0.000   5.050
  174        1.573   3.504   0.000   5.078
  175        1.571   3.502   0.000   5.073
  176        1.567   3.476   0.000   5.044
  177        1.567   3.476   0.000   5.044
  178        1.567   3.459   0.000   5.026
  179        1.588   3.432   0.000   5.020
  180        1.572   3.471   0.000   5.043
  181        1.572   3.471   0.000   5.043
  182        1.580   3.361   0.000   4.941
  183        1.570   3.491   0.000   5.060
  184        1.569   3.486   0.000   5.055
  185        1.569   3.486   0.000   5.055
  186        1.568   3.475   0.000   5.043
  187        1.569   3.482   0.000   5.052
  188        1.570   3.484   0.000   5.054
  189        1.570   3.484   0.000   5.054
  190        1.570   3.487   0.000   5.057
  191        1.568   3.462   0.000   5.031
  192        1.568   3.482   0.000   5.050
  193        1.568   3.482   0.000   5.050
  194        1.573   3.504   0.000   5.078
  195        1.571   3.501   0.000   5.072
  196        1.567   3.477   0.000   5.044
  197        1.567   3.477   0.000   5.044
  198        1.567   3.460   0.000   5.028
  199        1.588   3.432   0.000   5.020
  200        1.572   3.471   0.000   5.043
  201        1.572   3.471   0.000   5.043
  202        1.580   3.361   0.000   4.941
  203        1.570   3.491   0.000   5.060
  204        1.569   3.486   0.000   5.055
  205        1.569   3.486   0.000   5.055
  206        1.568   3.475   0.000   5.043
  207        1.569   3.482   0.000   5.052
  208        1.570   3.484   0.000   5.054
  209        1.570   3.484   0.000   5.054
  210        1.570   3.487   0.000   5.057
  211        1.568   3.464   0.000   5.032
  212        1.568   3.482   0.000   5.050
  213        1.568   3.482   0.000   5.050
  214        1.573   3.504   0.000   5.078
  215        1.571   3.501   0.000   5.073
  216        1.567   3.477   0.000   5.044
  217        1.567   3.477   0.000   5.044
  218        1.567   3.459   0.000   5.026
  219        1.588   3.433   0.000   5.020
  220        1.572   3.471   0.000   5.043
  221        1.572   3.471   0.000   5.043
  222        1.580   3.361   0.000   4.941
  223        1.570   3.491   0.000   5.060
  224        1.569   3.486   0.000   5.055
  225        1.569   3.486   0.000   5.055
  226        1.568   3.475   0.000   5.043
  227        1.569   3.482   0.000   5.052
  228        1.570   3.484   0.000   5.054
  229        1.570   3.484   0.000   5.054
  230        1.570   3.487   0.000   5.057
  231        1.568   3.462   0.000   5.031
  232        1.568   3.482   0.000   5.050
  233        1.568   3.482   0.000   5.050
  234        1.573   3.504   0.000   5.078
  235        1.571   3.501   0.000   5.072
  236        1.567   3.476   0.000   5.044
  237        1.567   3.476   0.000   5.044
  238        1.567   3.460   0.000   5.028
  239        1.588   3.432   0.000   5.020
--------------------------------------------------
tot        427.7401056.127 141.2011625.067
 

 total amount of memory used by VASP MPI-rank0   188312. kBytes
=======================================================================

   base      :      30000. kBytes
   nonlr-proj:      18304. kBytes
   fftplans  :      10810. kBytes
   grid      :      17629. kBytes
   one-center:        186. kBytes
   wavefun   :     111383. kBytes
 
  
  
 General timing and accounting informations for this job:
 ========================================================
  
                  Total CPU time used (sec):     2052.701
                            User time (sec):     2047.888
                          System time (sec):        4.813
                         Elapsed time (sec):     2059.328
  
                   Maximum memory used (kb):      532392.
                   Average memory used (kb):          N/A
  
                          Minor page faults:       341457
                          Major page faults:            0
                 Voluntary context switches:        15417
