
                                 *****************
                                 * O   R   C   A *
                                 *****************

                                            #,                                       
                                            ###                                      
                                            ####                                     
                                            #####                                    
                                            ######                                   
                                           ########,                                 
                                     ,,################,,,,,                         
                               ,,#################################,,                 
                          ,,##########################################,,             
                       ,#########################################, ''#####,          
                    ,#############################################,,   '####,        
                  ,##################################################,,,,####,       
                ,###########''''           ''''###############################       
              ,#####''   ,,,,##########,,,,          '''####'''          '####       
            ,##' ,,,,###########################,,,                        '##       
           ' ,,###''''                  '''############,,,                           
         ,,##''                                '''############,,,,        ,,,,,,###''
      ,#''                                            '''#######################'''  
     '                                                          ''''####''''         
             ,#######,   #######,   ,#######,      ##                                
            ,#'     '#,  ##    ##  ,#'     '#,    #''#        ######   ,####,        
            ##       ##  ##   ,#'  ##            #'  '#       #        #'  '#        
            ##       ##  #######   ##           ,######,      #####,   #    #        
            '#,     ,#'  ##    ##  '#,     ,#' ,#      #,         ##   #,  ,#        
             '#######'   ##     ##  '#######'  #'      '#     #####' # '####'        



                  #######################################################
                  #                        -***-                        #
                  #          Department of theory and spectroscopy      #
                  #    Directorship and core code : Frank Neese         #
                  #        Max Planck Institute fuer Kohlenforschung    #
                  #                Kaiser Wilhelm Platz 1               #
                  #                 D-45470 Muelheim/Ruhr               #
                  #                      Germany                        #
                  #                                                     #
                  #                  All rights reserved                #
                  #                        -***-                        #
                  #######################################################


                         Program Version 5.0.1 -  RELEASE  -


 With contributions from (in alphabetic order):
   Daniel Aravena         : Magnetic Suceptibility
   Michael Atanasov       : Ab Initio Ligand Field Theory (pilot matlab implementation)
   Alexander A. Auer      : GIAO ZORA, VPT2 properties, NMR spectrum
   Ute Becker             : Parallelization
   Giovanni Bistoni       : ED, misc. LED, open-shell LED, HFLD
   Martin Brehm           : Molecular dynamics
   Dmytro Bykov           : SCF Hessian
   Vijay G. Chilkuri      : MRCI spin determinant printing, contributions to CSF-ICE
   Dipayan Datta          : RHF DLPNO-CCSD density
   Achintya Kumar Dutta   : EOM-CC, STEOM-CC
   Dmitry Ganyushin       : Spin-Orbit,Spin-Spin,Magnetic field MRCI
   Miquel Garcia          : C-PCM and meta-GGA Hessian, CC/C-PCM, Gaussian charge scheme
   Yang Guo               : DLPNO-NEVPT2, F12-NEVPT2, CIM, IAO-localization
   Andreas Hansen         : Spin unrestricted coupled pair/coupled cluster methods
   Benjamin Helmich-Paris : MC-RPA, TRAH-SCF, COSX integrals
   Lee Huntington         : MR-EOM, pCC
   Robert Izsak           : Overlap fitted RIJCOSX, COSX-SCS-MP3, EOM
   Marcus Kettner         : VPT2
   Christian Kollmar      : KDIIS, OOCD, Brueckner-CCSD(T), CCSD density, CASPT2, CASPT2-K
   Simone Kossmann        : Meta GGA functionals, TD-DFT gradient, OOMP2, MP2 Hessian
   Martin Krupicka        : Initial AUTO-CI
   Lucas Lang             : DCDCAS
   Marvin Lechner         : AUTO-CI (C++ implementation), FIC-MRCC
   Dagmar Lenk            : GEPOL surface, SMD
   Dimitrios Liakos       : Extrapolation schemes; Compound Job, initial MDCI parallelization
   Dimitrios Manganas     : Further ROCIS development; embedding schemes
   Dimitrios Pantazis     : SARC Basis sets
   Anastasios Papadopoulos: AUTO-CI, single reference methods and gradients
   Taras Petrenko         : DFT Hessian,TD-DFT gradient, ASA, ECA, R-Raman, ABS, FL, XAS/XES, NRVS
   Peter Pinski           : DLPNO-MP2, DLPNO-MP2 Gradient
   Christoph Reimann      : Effective Core Potentials
   Marius Retegan         : Local ZFS, SOC
   Christoph Riplinger    : Optimizer, TS searches, QM/MM, DLPNO-CCSD(T), (RO)-DLPNO pert. Triples
   Tobias Risthaus        : Range-separated hybrids, TD-DFT gradient, RPA, STAB
   Michael Roemelt        : Original ROCIS implementation
   Masaaki Saitow         : Open-shell DLPNO-CCSD energy and density
   Barbara Sandhoefer     : DKH picture change effects
   Avijit Sen             : IP-ROCIS
   Kantharuban Sivalingam : CASSCF convergence, NEVPT2, FIC-MRCI
   Bernardo de Souza      : ESD, SOC TD-DFT
   Georgi Stoychev        : AutoAux, RI-MP2 NMR, DLPNO-MP2 response
   Willem Van den Heuvel  : Paramagnetic NMR
   Boris Wezisla          : Elementary symmetry handling
   Frank Wennmohs         : Technical directorship


 We gratefully acknowledge several colleagues who have allowed us to
 interface, adapt or use parts of their codes:
   Stefan Grimme, W. Hujo, H. Kruse, P. Pracht,  : VdW corrections, initial TS optimization,
                  C. Bannwarth, S. Ehlert          DFT functionals, gCP, sTDA/sTD-DF
   Ed Valeev, F. Pavosevic, A. Kumar             : LibInt (2-el integral package), F12 methods
   Garnet Chan, S. Sharma, J. Yang, R. Olivares  : DMRG
   Ulf Ekstrom                                   : XCFun DFT Library
   Mihaly Kallay                                 : mrcc  (arbitrary order and MRCC methods)
   Jiri Pittner, Ondrej Demel                    : Mk-CCSD
   Frank Weinhold                                : gennbo (NPA and NBO analysis)
   Christopher J. Cramer and Donald G. Truhlar   : smd solvation model
   Lars Goerigk                                  : TD-DFT with DH, B97 family of functionals
   V. Asgeirsson, H. Jonsson                     : NEB implementation
   FAccTs GmbH                                   : IRC, NEB, NEB-TS, DLPNO-Multilevel, CI-OPT
                                                   MM, QMMM, 2- and 3-layer-ONIOM, Crystal-QMMM,
                                                   LR-CPCM, SF, NACMEs, symmetry and pop. for TD-DFT,
                                                   nearIR, NL-DFT gradient (VV10), updates on ESD,
                                                   ML-optimized integration grids
   S Lehtola, MJT Oliveira, MAL Marques          : LibXC Library
   Liviu Ungur et al                             : ANISO software


 Your calculation uses the libint2 library for the computation of 2-el integrals
 For citations please refer to: http://libint.valeyev.net

 Your ORCA version has been built with support for libXC version: 5.1.0
 For citations please refer to: https://tddft.org/programs/libxc/

 This ORCA versions uses:
   CBLAS   interface :  Fast vector & matrix operations
   LAPACKE interface :  Fast linear algebra routines
   SCALAPACK package :  Parallel linear algebra routines
   Shared memory     :  Shared parallel matrices
   BLAS/LAPACK       :  OpenBLAS 0.3.15  USE64BITINT DYNAMIC_ARCH NO_AFFINITY SkylakeX SINGLE_THREADED
        Core in use  :  SkylakeX
   Copyright (c) 2011-2014, The OpenBLAS Project


SCAN-COORDS
================================================================================

----- Orbital basis set information -----
Your calculation utilizes the basis: def2-TZVPP
   F. Weigend and R. Ahlrichs, Phys. Chem. Chem. Phys. 7, 3297 (2005).

----- AuxJ basis set information -----
Your calculation utilizes the auxiliary basis: def2/J
   F. Weigend, Phys. Chem. Chem. Phys. 8, 1057 (2006).

================================================================================
                                        WARNINGS
                       Please study these warnings very carefully!
================================================================================

WARNING: The globally-selected AuxJ basis set is optimized for use with ECPs
         Make sure a suitable alternative is explicitly given all heavy elements (Z>36)

INFO   : the flag for use of the SHARK integral package has been found!

================================================================================
                                       INPUT FILE
================================================================================
NAME = orca.inp
|  1> ! NormalSCF SlowConv DIIS
|  2> %maxcore 18000
|  3> %pal
|  4>   nprocs 16
|  5> end
|  6> %pointcharges "orca.bq"
|  7> %method
|  8>   Method DFT
|  9>   Functional PBE
| 10>   RI on
| 11>   RunTyp Energy
| 12> end
| 13> %basis
| 14>   Basis "def2-TZVPP"
| 15>   Aux "def2/J"
| 16> end
| 17> %scf
| 18>   HFTyp rks
| 19>   Guess Hueckel
| 20>   AutoStart True
| 21>   SCFMode Direct
| 22>   MaxIter 1000
| 23>   sthresh 1e-6
| 24>   AutoTRAHIter 80
| 25> end
| 26> %coords
| 27>   CTyp xyz
| 28>   Mult 1
| 29>   Units angs
| 30>   Charge 0
| 31>   coords
| 32> O                       0.00000000000    0.00000000000    0.00000000000
| 33> Ti                      0.00000000000    1.48054676798   -1.27209143018
| 34> Ti                      0.00000000000   -1.48054676798   -1.27209143018
| 35> Ti                      0.00000000000    0.00000000000    1.98192821856
| 36> O                      -0.00000000000    0.00000000000   -2.54418286035
| 37> O                      -1.27209143018    1.48054676798    1.98192821856
| 38> O                       1.27209143018    1.48054676798    1.98192821856
| 39> O                       1.27209143018   -1.48054676798    1.98192821856
| 40> O                      -1.27209143018   -1.48054676798    1.98192821856
| 41> O                      -1.98192821856    1.48054676798   -1.27209143018
| 42> O                       1.98192821856    1.48054676798   -1.27209143018
| 43> O                       1.98192821856   -1.48054676798   -1.27209143018
| 44> O                      -1.98192821856   -1.48054676798   -1.27209143018
| 45> O                       0.00000000000    2.96109353596    0.00000000000
| 46> O                       0.00000000000   -2.96109353596    0.00000000000
| 47> O                      -3.25401964873    0.00000000000    0.70983678838
| 48> O                       3.25401964873    0.00000000000    0.70983678838
| 49> Ti                     -3.25401964873    0.00000000000   -1.27209143018
| 50> Ti                      3.25401964873    0.00000000000   -1.27209143018
| 51> Ti                      0.00000000000    2.96109353596    1.98192821856
| 52> Ti                      0.00000000000   -2.96109353596    1.98192821856
| 53> O                      -0.00000000000    2.96109353596   -2.54418286035
| 54> O                      -0.00000000000   -2.96109353596   -2.54418286035
| 55> O                      -0.00000000000    0.00000000000    3.96385643712
| 56> Ti                     -3.25401964873    1.48054676798    1.98192821856
| 57> Ti                      3.25401964873    1.48054676798    1.98192821856
| 58> Ti                      3.25401964873   -1.48054676798    1.98192821856
| 59> Ti                     -3.25401964873   -1.48054676798    1.98192821856
| 60> O                      -3.25401964873    2.96109353596    0.70983678838
| 61> O                       3.25401964873    2.96109353596    0.70983678838
| 62> O                       3.25401964873   -2.96109353596    0.70983678838
| 63> O                      -3.25401964873   -2.96109353596    0.70983678838
| 64> Ti                      0.00000000000    0.00000000000   -4.52611107891
| 65> Ti                     -3.25401964873    2.96109353596   -1.27209143018
| 66> Ti                      3.25401964873    2.96109353596   -1.27209143018
| 67> Ti                      3.25401964873   -2.96109353596   -1.27209143018
| 68> Ti                     -3.25401964873   -2.96109353596   -1.27209143018
| 69> O                      -3.25401964873    0.00000000000    3.25401964873
| 70> O                       3.25401964873    0.00000000000    3.25401964873
| 71> O                      -3.25401964873    0.00000000000   -3.25401964873
| 72> O                       3.25401964873    0.00000000000   -3.25401964873
| 73> Ti                      0.00000000000    4.44164030394   -1.27209143018
| 74> Ti                      0.00000000000   -4.44164030394   -1.27209143018
| 75> O                      -4.52611107891    1.48054676798   -1.27209143018
| 76> O                       4.52611107891    1.48054676798   -1.27209143018
| 77> O                       4.52611107891   -1.48054676798   -1.27209143018
| 78> O                      -4.52611107891   -1.48054676798   -1.27209143018
| 79> O                      -1.27209143018    1.48054676798   -4.52611107891
| 80> O                       1.27209143018    1.48054676798   -4.52611107891
| 81> O                       1.27209143018   -1.48054676798   -4.52611107891
| 82> O                      -1.27209143018   -1.48054676798   -4.52611107891
| 83> O                      -0.00000000000    2.96109353596    3.96385643712
| 84> O                      -0.00000000000   -2.96109353596    3.96385643712
| 85> O                      -1.27209143018    4.44164030394    1.98192821856
| 86> O                       1.27209143018    4.44164030394    1.98192821856
| 87> O                       1.27209143018   -4.44164030394    1.98192821856
| 88> O                      -1.27209143018   -4.44164030394    1.98192821856
| 89> O                      -1.98192821856    4.44164030394   -1.27209143018
| 90> O                       1.98192821856    4.44164030394   -1.27209143018
| 91> O                       1.98192821856   -4.44164030394   -1.27209143018
| 92> O                      -1.98192821856   -4.44164030394   -1.27209143018
| 93> Ti                      0.00000000000    2.96109353596   -4.52611107891
| 94> Ti                      0.00000000000   -2.96109353596   -4.52611107891
| 95> Ti                      0.00000000000    1.48054676798    5.23594786729
| 96> Ti                      0.00000000000   -1.48054676798    5.23594786729
| 97> O                      -3.25401964873    2.96109353596    3.25401964873
| 98> O                       3.25401964873    2.96109353596    3.25401964873
| 99> O                       3.25401964873   -2.96109353596    3.25401964873
|100> O                      -3.25401964873   -2.96109353596    3.25401964873
|101> O                      -3.25401964873    2.96109353596   -3.25401964873
|102> O                       3.25401964873    2.96109353596   -3.25401964873
|103> O                       3.25401964873   -2.96109353596   -3.25401964873
|104> O                      -3.25401964873   -2.96109353596   -3.25401964873
|105> Ti                     -3.25401964873    1.48054676798   -4.52611107891
|106> Ti                      3.25401964873    1.48054676798   -4.52611107891
|107> Ti                      3.25401964873   -1.48054676798   -4.52611107891
|108> Ti                     -3.25401964873   -1.48054676798   -4.52611107891
|109> O                      -1.98192821856    1.48054676798    5.23594786729
|110> O                       1.98192821856    1.48054676798    5.23594786729
|111> O                       1.98192821856   -1.48054676798    5.23594786729
|112> O                      -1.98192821856   -1.48054676798    5.23594786729
|113> O                      -5.23594786729    1.48054676798    1.98192821856
|114> O                       5.23594786729    1.48054676798    1.98192821856
|115> O                       5.23594786729   -1.48054676798    1.98192821856
|116> O                      -5.23594786729   -1.48054676798    1.98192821856
|117> Ti                     -3.25401964873    4.44164030394    1.98192821856
|118> Ti                      3.25401964873    4.44164030394    1.98192821856
|119> Ti                      3.25401964873   -4.44164030394    1.98192821856
|120> Ti                     -3.25401964873   -4.44164030394    1.98192821856
|121> O                       0.00000000000    5.92218707193    0.00000000000
|122> O                       0.00000000000   -5.92218707193    0.00000000000
|123> Ti                     -3.25401964873    0.00000000000    5.23594786729
|124> Ti                      3.25401964873    0.00000000000    5.23594786729
|125> Ti                      0.00000000000    5.92218707193    1.98192821856
|126> Ti                      0.00000000000   -5.92218707193    1.98192821856
|127> O                      -0.00000000000    5.92218707193   -2.54418286035
|128> O                      -0.00000000000   -5.92218707193   -2.54418286035
|129> O                      -4.52611107891    4.44164030394   -1.27209143018
|130> O                       4.52611107891    4.44164030394   -1.27209143018
|131> O                       4.52611107891   -4.44164030394   -1.27209143018
|132> O                      -4.52611107891   -4.44164030394   -1.27209143018
|133> O                      -1.27209143018    4.44164030394   -4.52611107891
|134> O                       1.27209143018    4.44164030394   -4.52611107891
|135> O                       1.27209143018   -4.44164030394   -4.52611107891
|136> O                      -1.27209143018   -4.44164030394   -4.52611107891
|137> O                      -6.50803929747    0.00000000000    0.00000000000
|138> O                       6.50803929747    0.00000000000    0.00000000000
|139> O                       0.00000000000    0.00000000000   -6.50803929747
|140> O                      -3.25401964873    0.00000000000   -5.79820250908
|141> O                       3.25401964873    0.00000000000   -5.79820250908
|142> O                      -3.25401964873    5.92218707193    0.70983678838
|143> O                       3.25401964873    5.92218707193    0.70983678838
|144> O                       3.25401964873   -5.92218707193    0.70983678838
|145> O                      -3.25401964873   -5.92218707193    0.70983678838
|146> Ti                     -6.50803929747    1.48054676798   -1.27209143018
|147> Ti                      6.50803929747    1.48054676798   -1.27209143018
|148> Ti                      6.50803929747   -1.48054676798   -1.27209143018
|149> Ti                     -6.50803929747   -1.48054676798   -1.27209143018
|150> Ti                     -6.50803929747    0.00000000000    1.98192821856
|151> Ti                      6.50803929747    0.00000000000    1.98192821856
|152> Ti>    4.00000000000   -3.25401964873    2.96109353596    5.23594786729
|153> NewECP
|154> N_core 0
|155>   lmax f
|156>   s 2
|157>    1      0.860000       9.191690  2
|158>    2      0.172000       0.008301  2
|159>   p 2
|160>    1      0.860000      17.997720  2
|161>    2      0.172000      -0.032600  2
|162>   d 2
|163>    1      1.600000      -9.504310  2
|164>    2      0.320000      -0.151370  2
|165>   f 1
|166>    1      1.000000000    0.000000000 2
|167> end
|168> Ti>    4.00000000000    3.25401964873    2.96109353596    5.23594786729
|169> NewECP
|170> N_core 0
|171>   lmax f
|172>   s 2
|173>    1      0.860000       9.191690  2
|174>    2      0.172000       0.008301  2
|175>   p 2
|176>    1      0.860000      17.997720  2
|177>    2      0.172000      -0.032600  2
|178>   d 2
|179>    1      1.600000      -9.504310  2
|180>    2      0.320000      -0.151370  2
|181>   f 1
|182>    1      1.000000000    0.000000000 2
|183> end
|184> Ti>    4.00000000000    3.25401964873   -2.96109353596    5.23594786729
|185> NewECP
|186> N_core 0
|187>   lmax f
|188>   s 2
|189>    1      0.860000       9.191690  2
|190>    2      0.172000       0.008301  2
|191>   p 2
|192>    1      0.860000      17.997720  2
|193>    2      0.172000      -0.032600  2
|194>   d 2
|195>    1      1.600000      -9.504310  2
|196>    2      0.320000      -0.151370  2
|197>   f 1
|198>    1      1.000000000    0.000000000 2
|199> end
|200> Ti>    4.00000000000   -3.25401964873   -2.96109353596    5.23594786729
|201> NewECP
|202> N_core 0
|203>   lmax f
|204>   s 2
|205>    1      0.860000       9.191690  2
|206>    2      0.172000       0.008301  2
|207>   p 2
|208>    1      0.860000      17.997720  2
|209>    2      0.172000      -0.032600  2
|210>   d 2
|211>    1      1.600000      -9.504310  2
|212>    2      0.320000      -0.151370  2
|213>   f 1
|214>    1      1.000000000    0.000000000 2
|215> end
|216> Ti>    4.00000000000    0.00000000000    4.44164030394    5.23594786729
|217> NewECP
|218> N_core 0
|219>   lmax f
|220>   s 2
|221>    1      0.860000       9.191690  2
|222>    2      0.172000       0.008301  2
|223>   p 2
|224>    1      0.860000      17.997720  2
|225>    2      0.172000      -0.032600  2
|226>   d 2
|227>    1      1.600000      -9.504310  2
|228>    2      0.320000      -0.151370  2
|229>   f 1
|230>    1      1.000000000    0.000000000 2
|231> end
|232> Ti>    4.00000000000    0.00000000000   -4.44164030394    5.23594786729
|233> NewECP
|234> N_core 0
|235>   lmax f
|236>   s 2
|237>    1      0.860000       9.191690  2
|238>    2      0.172000       0.008301  2
|239>   p 2
|240>    1      0.860000      17.997720  2
|241>    2      0.172000      -0.032600  2
|242>   d 2
|243>    1      1.600000      -9.504310  2
|244>    2      0.320000      -0.151370  2
|245>   f 1
|246>    1      1.000000000    0.000000000 2
|247> end
|248> Ti>    4.00000000000   -3.25401964873    5.92218707193   -1.27209143018
|249> NewECP
|250> N_core 0
|251>   lmax f
|252>   s 2
|253>    1      0.860000       9.191690  2
|254>    2      0.172000       0.008301  2
|255>   p 2
|256>    1      0.860000      17.997720  2
|257>    2      0.172000      -0.032600  2
|258>   d 2
|259>    1      1.600000      -9.504310  2
|260>    2      0.320000      -0.151370  2
|261>   f 1
|262>    1      1.000000000    0.000000000 2
|263> end
|264> Ti>    4.00000000000    3.25401964873    5.92218707193   -1.27209143018
|265> NewECP
|266> N_core 0
|267>   lmax f
|268>   s 2
|269>    1      0.860000       9.191690  2
|270>    2      0.172000       0.008301  2
|271>   p 2
|272>    1      0.860000      17.997720  2
|273>    2      0.172000      -0.032600  2
|274>   d 2
|275>    1      1.600000      -9.504310  2
|276>    2      0.320000      -0.151370  2
|277>   f 1
|278>    1      1.000000000    0.000000000 2
|279> end
|280> Ti>    4.00000000000    3.25401964873   -5.92218707193   -1.27209143018
|281> NewECP
|282> N_core 0
|283>   lmax f
|284>   s 2
|285>    1      0.860000       9.191690  2
|286>    2      0.172000       0.008301  2
|287>   p 2
|288>    1      0.860000      17.997720  2
|289>    2      0.172000      -0.032600  2
|290>   d 2
|291>    1      1.600000      -9.504310  2
|292>    2      0.320000      -0.151370  2
|293>   f 1
|294>    1      1.000000000    0.000000000 2
|295> end
|296> Ti>    4.00000000000   -3.25401964873   -5.92218707193   -1.27209143018
|297> NewECP
|298> N_core 0
|299>   lmax f
|300>   s 2
|301>    1      0.860000       9.191690  2
|302>    2      0.172000       0.008301  2
|303>   p 2
|304>    1      0.860000      17.997720  2
|305>    2      0.172000      -0.032600  2
|306>   d 2
|307>    1      1.600000      -9.504310  2
|308>    2      0.320000      -0.151370  2
|309>   f 1
|310>    1      1.000000000    0.000000000 2
|311> end
|312> Ti>    4.00000000000   -3.25401964873    4.44164030394   -4.52611107891
|313> NewECP
|314> N_core 0
|315>   lmax f
|316>   s 2
|317>    1      0.860000       9.191690  2
|318>    2      0.172000       0.008301  2
|319>   p 2
|320>    1      0.860000      17.997720  2
|321>    2      0.172000      -0.032600  2
|322>   d 2
|323>    1      1.600000      -9.504310  2
|324>    2      0.320000      -0.151370  2
|325>   f 1
|326>    1      1.000000000    0.000000000 2
|327> end
|328> Ti>    4.00000000000    3.25401964873    4.44164030394   -4.52611107891
|329> NewECP
|330> N_core 0
|331>   lmax f
|332>   s 2
|333>    1      0.860000       9.191690  2
|334>    2      0.172000       0.008301  2
|335>   p 2
|336>    1      0.860000      17.997720  2
|337>    2      0.172000      -0.032600  2
|338>   d 2
|339>    1      1.600000      -9.504310  2
|340>    2      0.320000      -0.151370  2
|341>   f 1
|342>    1      1.000000000    0.000000000 2
|343> end
|344> Ti>    4.00000000000    3.25401964873   -4.44164030394   -4.52611107891
|345> NewECP
|346> N_core 0
|347>   lmax f
|348>   s 2
|349>    1      0.860000       9.191690  2
|350>    2      0.172000       0.008301  2
|351>   p 2
|352>    1      0.860000      17.997720  2
|353>    2      0.172000      -0.032600  2
|354>   d 2
|355>    1      1.600000      -9.504310  2
|356>    2      0.320000      -0.151370  2
|357>   f 1
|358>    1      1.000000000    0.000000000 2
|359> end
|360> Ti>    4.00000000000   -3.25401964873   -4.44164030394   -4.52611107891
|361> NewECP
|362> N_core 0
|363>   lmax f
|364>   s 2
|365>    1      0.860000       9.191690  2
|366>    2      0.172000       0.008301  2
|367>   p 2
|368>    1      0.860000      17.997720  2
|369>    2      0.172000      -0.032600  2
|370>   d 2
|371>    1      1.600000      -9.504310  2
|372>    2      0.320000      -0.151370  2
|373>   f 1
|374>    1      1.000000000    0.000000000 2
|375> end
|376> Ti>    4.00000000000   -6.50803929747    2.96109353596    1.98192821856
|377> NewECP
|378> N_core 0
|379>   lmax f
|380>   s 2
|381>    1      0.860000       9.191690  2
|382>    2      0.172000       0.008301  2
|383>   p 2
|384>    1      0.860000      17.997720  2
|385>    2      0.172000      -0.032600  2
|386>   d 2
|387>    1      1.600000      -9.504310  2
|388>    2      0.320000      -0.151370  2
|389>   f 1
|390>    1      1.000000000    0.000000000 2
|391> end
|392> Ti>    4.00000000000    6.50803929747    2.96109353596    1.98192821856
|393> NewECP
|394> N_core 0
|395>   lmax f
|396>   s 2
|397>    1      0.860000       9.191690  2
|398>    2      0.172000       0.008301  2
|399>   p 2
|400>    1      0.860000      17.997720  2
|401>    2      0.172000      -0.032600  2
|402>   d 2
|403>    1      1.600000      -9.504310  2
|404>    2      0.320000      -0.151370  2
|405>   f 1
|406>    1      1.000000000    0.000000000 2
|407> end
|408> Ti>    4.00000000000    6.50803929747   -2.96109353596    1.98192821856
|409> NewECP
|410> N_core 0
|411>   lmax f
|412>   s 2
|413>    1      0.860000       9.191690  2
|414>    2      0.172000       0.008301  2
|415>   p 2
|416>    1      0.860000      17.997720  2
|417>    2      0.172000      -0.032600  2
|418>   d 2
|419>    1      1.600000      -9.504310  2
|420>    2      0.320000      -0.151370  2
|421>   f 1
|422>    1      1.000000000    0.000000000 2
|423> end
|424> Ti>    4.00000000000   -6.50803929747   -2.96109353596    1.98192821856
|425> NewECP
|426> N_core 0
|427>   lmax f
|428>   s 2
|429>    1      0.860000       9.191690  2
|430>    2      0.172000       0.008301  2
|431>   p 2
|432>    1      0.860000      17.997720  2
|433>    2      0.172000      -0.032600  2
|434>   d 2
|435>    1      1.600000      -9.504310  2
|436>    2      0.320000      -0.151370  2
|437>   f 1
|438>    1      1.000000000    0.000000000 2
|439> end
|440> Ti>    4.00000000000    0.00000000000    5.92218707193   -4.52611107891
|441> NewECP
|442> N_core 0
|443>   lmax f
|444>   s 2
|445>    1      0.860000       9.191690  2
|446>    2      0.172000       0.008301  2
|447>   p 2
|448>    1      0.860000      17.997720  2
|449>    2      0.172000      -0.032600  2
|450>   d 2
|451>    1      1.600000      -9.504310  2
|452>    2      0.320000      -0.151370  2
|453>   f 1
|454>    1      1.000000000    0.000000000 2
|455> end
|456> Ti>    4.00000000000    0.00000000000   -5.92218707193   -4.52611107891
|457> NewECP
|458> N_core 0
|459>   lmax f
|460>   s 2
|461>    1      0.860000       9.191690  2
|462>    2      0.172000       0.008301  2
|463>   p 2
|464>    1      0.860000      17.997720  2
|465>    2      0.172000      -0.032600  2
|466>   d 2
|467>    1      1.600000      -9.504310  2
|468>    2      0.320000      -0.151370  2
|469>   f 1
|470>    1      1.000000000    0.000000000 2
|471> end
|472> Ti>    4.00000000000    0.00000000000    7.40273383991   -1.27209143018
|473> NewECP
|474> N_core 0
|475>   lmax f
|476>   s 2
|477>    1      0.860000       9.191690  2
|478>    2      0.172000       0.008301  2
|479>   p 2
|480>    1      0.860000      17.997720  2
|481>    2      0.172000      -0.032600  2
|482>   d 2
|483>    1      1.600000      -9.504310  2
|484>    2      0.320000      -0.151370  2
|485>   f 1
|486>    1      1.000000000    0.000000000 2
|487> end
|488> Ti>    4.00000000000    0.00000000000   -7.40273383991   -1.27209143018
|489> NewECP
|490> N_core 0
|491>   lmax f
|492>   s 2
|493>    1      0.860000       9.191690  2
|494>    2      0.172000       0.008301  2
|495>   p 2
|496>    1      0.860000      17.997720  2
|497>    2      0.172000      -0.032600  2
|498>   d 2
|499>    1      1.600000      -9.504310  2
|500>    2      0.320000      -0.151370  2
|501>   f 1
|502>    1      1.000000000    0.000000000 2
|503> end
|504> Ti>    4.00000000000    0.00000000000    1.48054676798   -7.78013072764
|505> NewECP
|506> N_core 0
|507>   lmax f
|508>   s 2
|509>    1      0.860000       9.191690  2
|510>    2      0.172000       0.008301  2
|511>   p 2
|512>    1      0.860000      17.997720  2
|513>    2      0.172000      -0.032600  2
|514>   d 2
|515>    1      1.600000      -9.504310  2
|516>    2      0.320000      -0.151370  2
|517>   f 1
|518>    1      1.000000000    0.000000000 2
|519> end
|520> Ti>    4.00000000000    0.00000000000   -1.48054676798   -7.78013072764
|521> NewECP
|522> N_core 0
|523>   lmax f
|524>   s 2
|525>    1      0.860000       9.191690  2
|526>    2      0.172000       0.008301  2
|527>   p 2
|528>    1      0.860000      17.997720  2
|529>    2      0.172000      -0.032600  2
|530>   d 2
|531>    1      1.600000      -9.504310  2
|532>    2      0.320000      -0.151370  2
|533>   f 1
|534>    1      1.000000000    0.000000000 2
|535> end
|536> Ti>    4.00000000000   -6.50803929747    0.00000000000   -4.52611107891
|537> NewECP
|538> N_core 0
|539>   lmax f
|540>   s 2
|541>    1      0.860000       9.191690  2
|542>    2      0.172000       0.008301  2
|543>   p 2
|544>    1      0.860000      17.997720  2
|545>    2      0.172000      -0.032600  2
|546>   d 2
|547>    1      1.600000      -9.504310  2
|548>    2      0.320000      -0.151370  2
|549>   f 1
|550>    1      1.000000000    0.000000000 2
|551> end
|552> Ti>    4.00000000000    6.50803929747    0.00000000000   -4.52611107891
|553> NewECP
|554> N_core 0
|555>   lmax f
|556>   s 2
|557>    1      0.860000       9.191690  2
|558>    2      0.172000       0.008301  2
|559>   p 2
|560>    1      0.860000      17.997720  2
|561>    2      0.172000      -0.032600  2
|562>   d 2
|563>    1      1.600000      -9.504310  2
|564>    2      0.320000      -0.151370  2
|565>   f 1
|566>    1      1.000000000    0.000000000 2
|567> end
|568> Ti>    4.00000000000   -6.50803929747    4.44164030394   -1.27209143018
|569> NewECP
|570> N_core 0
|571>   lmax f
|572>   s 2
|573>    1      0.860000       9.191690  2
|574>    2      0.172000       0.008301  2
|575>   p 2
|576>    1      0.860000      17.997720  2
|577>    2      0.172000      -0.032600  2
|578>   d 2
|579>    1      1.600000      -9.504310  2
|580>    2      0.320000      -0.151370  2
|581>   f 1
|582>    1      1.000000000    0.000000000 2
|583> end
|584> Ti>    4.00000000000    6.50803929747    4.44164030394   -1.27209143018
|585> NewECP
|586> N_core 0
|587>   lmax f
|588>   s 2
|589>    1      0.860000       9.191690  2
|590>    2      0.172000       0.008301  2
|591>   p 2
|592>    1      0.860000      17.997720  2
|593>    2      0.172000      -0.032600  2
|594>   d 2
|595>    1      1.600000      -9.504310  2
|596>    2      0.320000      -0.151370  2
|597>   f 1
|598>    1      1.000000000    0.000000000 2
|599> end
|600> Ti>    4.00000000000    6.50803929747   -4.44164030394   -1.27209143018
|601> NewECP
|602> N_core 0
|603>   lmax f
|604>   s 2
|605>    1      0.860000       9.191690  2
|606>    2      0.172000       0.008301  2
|607>   p 2
|608>    1      0.860000      17.997720  2
|609>    2      0.172000      -0.032600  2
|610>   d 2
|611>    1      1.600000      -9.504310  2
|612>    2      0.320000      -0.151370  2
|613>   f 1
|614>    1      1.000000000    0.000000000 2
|615> end
|616> Ti>    4.00000000000   -6.50803929747   -4.44164030394   -1.27209143018
|617> NewECP
|618> N_core 0
|619>   lmax f
|620>   s 2
|621>    1      0.860000       9.191690  2
|622>    2      0.172000       0.008301  2
|623>   p 2
|624>    1      0.860000      17.997720  2
|625>    2      0.172000      -0.032600  2
|626>   d 2
|627>    1      1.600000      -9.504310  2
|628>    2      0.320000      -0.151370  2
|629>   f 1
|630>    1      1.000000000    0.000000000 2
|631> end
|632> Ti>    4.00000000000   -3.25401964873    7.40273383991    1.98192821856
|633> NewECP
|634> N_core 0
|635>   lmax f
|636>   s 2
|637>    1      0.860000       9.191690  2
|638>    2      0.172000       0.008301  2
|639>   p 2
|640>    1      0.860000      17.997720  2
|641>    2      0.172000      -0.032600  2
|642>   d 2
|643>    1      1.600000      -9.504310  2
|644>    2      0.320000      -0.151370  2
|645>   f 1
|646>    1      1.000000000    0.000000000 2
|647> end
|648> Ti>    4.00000000000    3.25401964873    7.40273383991    1.98192821856
|649> NewECP
|650> N_core 0
|651>   lmax f
|652>   s 2
|653>    1      0.860000       9.191690  2
|654>    2      0.172000       0.008301  2
|655>   p 2
|656>    1      0.860000      17.997720  2
|657>    2      0.172000      -0.032600  2
|658>   d 2
|659>    1      1.600000      -9.504310  2
|660>    2      0.320000      -0.151370  2
|661>   f 1
|662>    1      1.000000000    0.000000000 2
|663> end
|664> Ti>    4.00000000000    3.25401964873   -7.40273383991    1.98192821856
|665> NewECP
|666> N_core 0
|667>   lmax f
|668>   s 2
|669>    1      0.860000       9.191690  2
|670>    2      0.172000       0.008301  2
|671>   p 2
|672>    1      0.860000      17.997720  2
|673>    2      0.172000      -0.032600  2
|674>   d 2
|675>    1      1.600000      -9.504310  2
|676>    2      0.320000      -0.151370  2
|677>   f 1
|678>    1      1.000000000    0.000000000 2
|679> end
|680> Ti>    4.00000000000   -3.25401964873   -7.40273383991    1.98192821856
|681> NewECP
|682> N_core 0
|683>   lmax f
|684>   s 2
|685>    1      0.860000       9.191690  2
|686>    2      0.172000       0.008301  2
|687>   p 2
|688>    1      0.860000      17.997720  2
|689>    2      0.172000      -0.032600  2
|690>   d 2
|691>    1      1.600000      -9.504310  2
|692>    2      0.320000      -0.151370  2
|693>   f 1
|694>    1      1.000000000    0.000000000 2
|695> end
|696> Ti>    4.00000000000   -3.25401964873    0.00000000000   -7.78013072764
|697> NewECP
|698> N_core 0
|699>   lmax f
|700>   s 2
|701>    1      0.860000       9.191690  2
|702>    2      0.172000       0.008301  2
|703>   p 2
|704>    1      0.860000      17.997720  2
|705>    2      0.172000      -0.032600  2
|706>   d 2
|707>    1      1.600000      -9.504310  2
|708>    2      0.320000      -0.151370  2
|709>   f 1
|710>    1      1.000000000    0.000000000 2
|711> end
|712> Ti>    4.00000000000    3.25401964873    0.00000000000   -7.78013072764
|713> NewECP
|714> N_core 0
|715>   lmax f
|716>   s 2
|717>    1      0.860000       9.191690  2
|718>    2      0.172000       0.008301  2
|719>   p 2
|720>    1      0.860000      17.997720  2
|721>    2      0.172000      -0.032600  2
|722>   d 2
|723>    1      1.600000      -9.504310  2
|724>    2      0.320000      -0.151370  2
|725>   f 1
|726>    1      1.000000000    0.000000000 2
|727> end
|728> Ti>    4.00000000000   -6.50803929747    2.96109353596   -4.52611107891
|729> NewECP
|730> N_core 0
|731>   lmax f
|732>   s 2
|733>    1      0.860000       9.191690  2
|734>    2      0.172000       0.008301  2
|735>   p 2
|736>    1      0.860000      17.997720  2
|737>    2      0.172000      -0.032600  2
|738>   d 2
|739>    1      1.600000      -9.504310  2
|740>    2      0.320000      -0.151370  2
|741>   f 1
|742>    1      1.000000000    0.000000000 2
|743> end
|744> Ti>    4.00000000000    6.50803929747    2.96109353596   -4.52611107891
|745> NewECP
|746> N_core 0
|747>   lmax f
|748>   s 2
|749>    1      0.860000       9.191690  2
|750>    2      0.172000       0.008301  2
|751>   p 2
|752>    1      0.860000      17.997720  2
|753>    2      0.172000      -0.032600  2
|754>   d 2
|755>    1      1.600000      -9.504310  2
|756>    2      0.320000      -0.151370  2
|757>   f 1
|758>    1      1.000000000    0.000000000 2
|759> end
|760> Ti>    4.00000000000    6.50803929747   -2.96109353596   -4.52611107891
|761> NewECP
|762> N_core 0
|763>   lmax f
|764>   s 2
|765>    1      0.860000       9.191690  2
|766>    2      0.172000       0.008301  2
|767>   p 2
|768>    1      0.860000      17.997720  2
|769>    2      0.172000      -0.032600  2
|770>   d 2
|771>    1      1.600000      -9.504310  2
|772>    2      0.320000      -0.151370  2
|773>   f 1
|774>    1      1.000000000    0.000000000 2
|775> end
|776> Ti>    4.00000000000   -6.50803929747   -2.96109353596   -4.52611107891
|777> NewECP
|778> N_core 0
|779>   lmax f
|780>   s 2
|781>    1      0.860000       9.191690  2
|782>    2      0.172000       0.008301  2
|783>   p 2
|784>    1      0.860000      17.997720  2
|785>    2      0.172000      -0.032600  2
|786>   d 2
|787>    1      1.600000      -9.504310  2
|788>    2      0.320000      -0.151370  2
|789>   f 1
|790>    1      1.000000000    0.000000000 2
|791> end
|792> Ti>    4.00000000000   -6.50803929747    1.48054676798    5.23594786729
|793> NewECP
|794> N_core 0
|795>   lmax f
|796>   s 2
|797>    1      0.860000       9.191690  2
|798>    2      0.172000       0.008301  2
|799>   p 2
|800>    1      0.860000      17.997720  2
|801>    2      0.172000      -0.032600  2
|802>   d 2
|803>    1      1.600000      -9.504310  2
|804>    2      0.320000      -0.151370  2
|805>   f 1
|806>    1      1.000000000    0.000000000 2
|807> end
|808> Ti>    4.00000000000    6.50803929747    1.48054676798    5.23594786729
|809> NewECP
|810> N_core 0
|811>   lmax f
|812>   s 2
|813>    1      0.860000       9.191690  2
|814>    2      0.172000       0.008301  2
|815>   p 2
|816>    1      0.860000      17.997720  2
|817>    2      0.172000      -0.032600  2
|818>   d 2
|819>    1      1.600000      -9.504310  2
|820>    2      0.320000      -0.151370  2
|821>   f 1
|822>    1      1.000000000    0.000000000 2
|823> end
|824> Ti>    4.00000000000    6.50803929747   -1.48054676798    5.23594786729
|825> NewECP
|826> N_core 0
|827>   lmax f
|828>   s 2
|829>    1      0.860000       9.191690  2
|830>    2      0.172000       0.008301  2
|831>   p 2
|832>    1      0.860000      17.997720  2
|833>    2      0.172000      -0.032600  2
|834>   d 2
|835>    1      1.600000      -9.504310  2
|836>    2      0.320000      -0.151370  2
|837>   f 1
|838>    1      1.000000000    0.000000000 2
|839> end
|840> Ti>    4.00000000000   -6.50803929747   -1.48054676798    5.23594786729
|841> NewECP
|842> N_core 0
|843>   lmax f
|844>   s 2
|845>    1      0.860000       9.191690  2
|846>    2      0.172000       0.008301  2
|847>   p 2
|848>    1      0.860000      17.997720  2
|849>    2      0.172000      -0.032600  2
|850>   d 2
|851>    1      1.600000      -9.504310  2
|852>    2      0.320000      -0.151370  2
|853>   f 1
|854>    1      1.000000000    0.000000000 2
|855> end
|856> Ti>    4.00000000000    0.00000000000    0.00000000000    8.48996751602
|857> NewECP
|858> N_core 0
|859>   lmax f
|860>   s 2
|861>    1      0.860000       9.191690  2
|862>    2      0.172000       0.008301  2
|863>   p 2
|864>    1      0.860000      17.997720  2
|865>    2      0.172000      -0.032600  2
|866>   d 2
|867>    1      1.600000      -9.504310  2
|868>    2      0.320000      -0.151370  2
|869>   f 1
|870>    1      1.000000000    0.000000000 2
|871> end
|872> Ti>    4.00000000000   -3.25401964873    5.92218707193    5.23594786729
|873> NewECP
|874> N_core 0
|875>   lmax f
|876>   s 2
|877>    1      0.860000       9.191690  2
|878>    2      0.172000       0.008301  2
|879>   p 2
|880>    1      0.860000      17.997720  2
|881>    2      0.172000      -0.032600  2
|882>   d 2
|883>    1      1.600000      -9.504310  2
|884>    2      0.320000      -0.151370  2
|885>   f 1
|886>    1      1.000000000    0.000000000 2
|887> end
|888> Ti>    4.00000000000    3.25401964873    5.92218707193    5.23594786729
|889> NewECP
|890> N_core 0
|891>   lmax f
|892>   s 2
|893>    1      0.860000       9.191690  2
|894>    2      0.172000       0.008301  2
|895>   p 2
|896>    1      0.860000      17.997720  2
|897>    2      0.172000      -0.032600  2
|898>   d 2
|899>    1      1.600000      -9.504310  2
|900>    2      0.320000      -0.151370  2
|901>   f 1
|902>    1      1.000000000    0.000000000 2
|903> end
|904> Ti>    4.00000000000    3.25401964873   -5.92218707193    5.23594786729
|905> NewECP
|906> N_core 0
|907>   lmax f
|908>   s 2
|909>    1      0.860000       9.191690  2
|910>    2      0.172000       0.008301  2
|911>   p 2
|912>    1      0.860000      17.997720  2
|913>    2      0.172000      -0.032600  2
|914>   d 2
|915>    1      1.600000      -9.504310  2
|916>    2      0.320000      -0.151370  2
|917>   f 1
|918>    1      1.000000000    0.000000000 2
|919> end
|920> Ti>    4.00000000000   -3.25401964873   -5.92218707193    5.23594786729
|921> NewECP
|922> N_core 0
|923>   lmax f
|924>   s 2
|925>    1      0.860000       9.191690  2
|926>    2      0.172000       0.008301  2
|927>   p 2
|928>    1      0.860000      17.997720  2
|929>    2      0.172000      -0.032600  2
|930>   d 2
|931>    1      1.600000      -9.504310  2
|932>    2      0.320000      -0.151370  2
|933>   f 1
|934>    1      1.000000000    0.000000000 2
|935> end
|936> Ti>    4.00000000000   -3.25401964873    2.96109353596   -7.78013072764
|937> NewECP
|938> N_core 0
|939>   lmax f
|940>   s 2
|941>    1      0.860000       9.191690  2
|942>    2      0.172000       0.008301  2
|943>   p 2
|944>    1      0.860000      17.997720  2
|945>    2      0.172000      -0.032600  2
|946>   d 2
|947>    1      1.600000      -9.504310  2
|948>    2      0.320000      -0.151370  2
|949>   f 1
|950>    1      1.000000000    0.000000000 2
|951> end
|952> Ti>    4.00000000000    3.25401964873    2.96109353596   -7.78013072764
|953> NewECP
|954> N_core 0
|955>   lmax f
|956>   s 2
|957>    1      0.860000       9.191690  2
|958>    2      0.172000       0.008301  2
|959>   p 2
|960>    1      0.860000      17.997720  2
|961>    2      0.172000      -0.032600  2
|962>   d 2
|963>    1      1.600000      -9.504310  2
|964>    2      0.320000      -0.151370  2
|965>   f 1
|966>    1      1.000000000    0.000000000 2
|967> end
|968> Ti>    4.00000000000    3.25401964873   -2.96109353596   -7.78013072764
|969> NewECP
|970> N_core 0
|971>   lmax f
|972>   s 2
|973>    1      0.860000       9.191690  2
|974>    2      0.172000       0.008301  2
|975>   p 2
|976>    1      0.860000      17.997720  2
|977>    2      0.172000      -0.032600  2
|978>   d 2
|979>    1      1.600000      -9.504310  2
|980>    2      0.320000      -0.151370  2
|981>   f 1
|982>    1      1.000000000    0.000000000 2
|983> end
|984> Ti>    4.00000000000   -3.25401964873   -2.96109353596   -7.78013072764
|985> NewECP
|986> N_core 0
|987>   lmax f
|988>   s 2
|989>    1      0.860000       9.191690  2
|990>    2      0.172000       0.008301  2
|991>   p 2
|992>    1      0.860000      17.997720  2
|993>    2      0.172000      -0.032600  2
|994>   d 2
|995>    1      1.600000      -9.504310  2
|996>    2      0.320000      -0.151370  2
|997>   f 1
|998>    1      1.000000000    0.000000000 2
|999> end
|1000> Ti>    4.00000000000    0.00000000000    4.44164030394   -7.78013072764
|1001> NewECP
|1002> N_core 0
|1003>   lmax f
|1004>   s 2
|1005>    1      0.860000       9.191690  2
|1006>    2      0.172000       0.008301  2
|1007>   p 2
|1008>    1      0.860000      17.997720  2
|1009>    2      0.172000      -0.032600  2
|1010>   d 2
|1011>    1      1.600000      -9.504310  2
|1012>    2      0.320000      -0.151370  2
|1013>   f 1
|1014>    1      1.000000000    0.000000000 2
|1015> end
|1016> Ti>    4.00000000000    0.00000000000   -4.44164030394   -7.78013072764
|1017> NewECP
|1018> N_core 0
|1019>   lmax f
|1020>   s 2
|1021>    1      0.860000       9.191690  2
|1022>    2      0.172000       0.008301  2
|1023>   p 2
|1024>    1      0.860000      17.997720  2
|1025>    2      0.172000      -0.032600  2
|1026>   d 2
|1027>    1      1.600000      -9.504310  2
|1028>    2      0.320000      -0.151370  2
|1029>   f 1
|1030>    1      1.000000000    0.000000000 2
|1031> end
|1032> Ti>    4.00000000000    0.00000000000    2.96109353596    8.48996751602
|1033> NewECP
|1034> N_core 0
|1035>   lmax f
|1036>   s 2
|1037>    1      0.860000       9.191690  2
|1038>    2      0.172000       0.008301  2
|1039>   p 2
|1040>    1      0.860000      17.997720  2
|1041>    2      0.172000      -0.032600  2
|1042>   d 2
|1043>    1      1.600000      -9.504310  2
|1044>    2      0.320000      -0.151370  2
|1045>   f 1
|1046>    1      1.000000000    0.000000000 2
|1047> end
|1048> Ti>    4.00000000000    0.00000000000   -2.96109353596    8.48996751602
|1049> NewECP
|1050> N_core 0
|1051>   lmax f
|1052>   s 2
|1053>    1      0.860000       9.191690  2
|1054>    2      0.172000       0.008301  2
|1055>   p 2
|1056>    1      0.860000      17.997720  2
|1057>    2      0.172000      -0.032600  2
|1058>   d 2
|1059>    1      1.600000      -9.504310  2
|1060>    2      0.320000      -0.151370  2
|1061>   f 1
|1062>    1      1.000000000    0.000000000 2
|1063> end
|1064> Ti>    4.00000000000   -6.50803929747    5.92218707193    1.98192821856
|1065> NewECP
|1066> N_core 0
|1067>   lmax f
|1068>   s 2
|1069>    1      0.860000       9.191690  2
|1070>    2      0.172000       0.008301  2
|1071>   p 2
|1072>    1      0.860000      17.997720  2
|1073>    2      0.172000      -0.032600  2
|1074>   d 2
|1075>    1      1.600000      -9.504310  2
|1076>    2      0.320000      -0.151370  2
|1077>   f 1
|1078>    1      1.000000000    0.000000000 2
|1079> end
|1080> Ti>    4.00000000000    6.50803929747    5.92218707193    1.98192821856
|1081> NewECP
|1082> N_core 0
|1083>   lmax f
|1084>   s 2
|1085>    1      0.860000       9.191690  2
|1086>    2      0.172000       0.008301  2
|1087>   p 2
|1088>    1      0.860000      17.997720  2
|1089>    2      0.172000      -0.032600  2
|1090>   d 2
|1091>    1      1.600000      -9.504310  2
|1092>    2      0.320000      -0.151370  2
|1093>   f 1
|1094>    1      1.000000000    0.000000000 2
|1095> end
|1096> Ti>    4.00000000000    6.50803929747   -5.92218707193    1.98192821856
|1097> NewECP
|1098> N_core 0
|1099>   lmax f
|1100>   s 2
|1101>    1      0.860000       9.191690  2
|1102>    2      0.172000       0.008301  2
|1103>   p 2
|1104>    1      0.860000      17.997720  2
|1105>    2      0.172000      -0.032600  2
|1106>   d 2
|1107>    1      1.600000      -9.504310  2
|1108>    2      0.320000      -0.151370  2
|1109>   f 1
|1110>    1      1.000000000    0.000000000 2
|1111> end
|1112> Ti>    4.00000000000   -6.50803929747   -5.92218707193    1.98192821856
|1113> NewECP
|1114> N_core 0
|1115>   lmax f
|1116>   s 2
|1117>    1      0.860000       9.191690  2
|1118>    2      0.172000       0.008301  2
|1119>   p 2
|1120>    1      0.860000      17.997720  2
|1121>    2      0.172000      -0.032600  2
|1122>   d 2
|1123>    1      1.600000      -9.504310  2
|1124>    2      0.320000      -0.151370  2
|1125>   f 1
|1126>    1      1.000000000    0.000000000 2
|1127> end
|1128> Ti>    4.00000000000    0.00000000000    7.40273383991    5.23594786729
|1129> NewECP
|1130> N_core 0
|1131>   lmax f
|1132>   s 2
|1133>    1      0.860000       9.191690  2
|1134>    2      0.172000       0.008301  2
|1135>   p 2
|1136>    1      0.860000      17.997720  2
|1137>    2      0.172000      -0.032600  2
|1138>   d 2
|1139>    1      1.600000      -9.504310  2
|1140>    2      0.320000      -0.151370  2
|1141>   f 1
|1142>    1      1.000000000    0.000000000 2
|1143> end
|1144> Ti>    4.00000000000    0.00000000000   -7.40273383991    5.23594786729
|1145> NewECP
|1146> N_core 0
|1147>   lmax f
|1148>   s 2
|1149>    1      0.860000       9.191690  2
|1150>    2      0.172000       0.008301  2
|1151>   p 2
|1152>    1      0.860000      17.997720  2
|1153>    2      0.172000      -0.032600  2
|1154>   d 2
|1155>    1      1.600000      -9.504310  2
|1156>    2      0.320000      -0.151370  2
|1157>   f 1
|1158>    1      1.000000000    0.000000000 2
|1159> end
|1160> Ti>    4.00000000000    0.00000000000    8.88328060789    1.98192821856
|1161> NewECP
|1162> N_core 0
|1163>   lmax f
|1164>   s 2
|1165>    1      0.860000       9.191690  2
|1166>    2      0.172000       0.008301  2
|1167>   p 2
|1168>    1      0.860000      17.997720  2
|1169>    2      0.172000      -0.032600  2
|1170>   d 2
|1171>    1      1.600000      -9.504310  2
|1172>    2      0.320000      -0.151370  2
|1173>   f 1
|1174>    1      1.000000000    0.000000000 2
|1175> end
|1176> Ti>    4.00000000000    0.00000000000   -8.88328060789    1.98192821856
|1177> NewECP
|1178> N_core 0
|1179>   lmax f
|1180>   s 2
|1181>    1      0.860000       9.191690  2
|1182>    2      0.172000       0.008301  2
|1183>   p 2
|1184>    1      0.860000      17.997720  2
|1185>    2      0.172000      -0.032600  2
|1186>   d 2
|1187>    1      1.600000      -9.504310  2
|1188>    2      0.320000      -0.151370  2
|1189>   f 1
|1190>    1      1.000000000    0.000000000 2
|1191> end
|1192> Ti>    4.00000000000   -3.25401964873    1.48054676798    8.48996751602
|1193> NewECP
|1194> N_core 0
|1195>   lmax f
|1196>   s 2
|1197>    1      0.860000       9.191690  2
|1198>    2      0.172000       0.008301  2
|1199>   p 2
|1200>    1      0.860000      17.997720  2
|1201>    2      0.172000      -0.032600  2
|1202>   d 2
|1203>    1      1.600000      -9.504310  2
|1204>    2      0.320000      -0.151370  2
|1205>   f 1
|1206>    1      1.000000000    0.000000000 2
|1207> end
|1208> Ti>    4.00000000000    3.25401964873    1.48054676798    8.48996751602
|1209> NewECP
|1210> N_core 0
|1211>   lmax f
|1212>   s 2
|1213>    1      0.860000       9.191690  2
|1214>    2      0.172000       0.008301  2
|1215>   p 2
|1216>    1      0.860000      17.997720  2
|1217>    2      0.172000      -0.032600  2
|1218>   d 2
|1219>    1      1.600000      -9.504310  2
|1220>    2      0.320000      -0.151370  2
|1221>   f 1
|1222>    1      1.000000000    0.000000000 2
|1223> end
|1224> Ti>    4.00000000000    3.25401964873   -1.48054676798    8.48996751602
|1225> NewECP
|1226> N_core 0
|1227>   lmax f
|1228>   s 2
|1229>    1      0.860000       9.191690  2
|1230>    2      0.172000       0.008301  2
|1231>   p 2
|1232>    1      0.860000      17.997720  2
|1233>    2      0.172000      -0.032600  2
|1234>   d 2
|1235>    1      1.600000      -9.504310  2
|1236>    2      0.320000      -0.151370  2
|1237>   f 1
|1238>    1      1.000000000    0.000000000 2
|1239> end
|1240> Ti>    4.00000000000   -3.25401964873   -1.48054676798    8.48996751602
|1241> NewECP
|1242> N_core 0
|1243>   lmax f
|1244>   s 2
|1245>    1      0.860000       9.191690  2
|1246>    2      0.172000       0.008301  2
|1247>   p 2
|1248>    1      0.860000      17.997720  2
|1249>    2      0.172000      -0.032600  2
|1250>   d 2
|1251>    1      1.600000      -9.504310  2
|1252>    2      0.320000      -0.151370  2
|1253>   f 1
|1254>    1      1.000000000    0.000000000 2
|1255> end
|1256> Ti>    4.00000000000   -3.25401964873    7.40273383991   -4.52611107891
|1257> NewECP
|1258> N_core 0
|1259>   lmax f
|1260>   s 2
|1261>    1      0.860000       9.191690  2
|1262>    2      0.172000       0.008301  2
|1263>   p 2
|1264>    1      0.860000      17.997720  2
|1265>    2      0.172000      -0.032600  2
|1266>   d 2
|1267>    1      1.600000      -9.504310  2
|1268>    2      0.320000      -0.151370  2
|1269>   f 1
|1270>    1      1.000000000    0.000000000 2
|1271> end
|1272> Ti>    4.00000000000    3.25401964873    7.40273383991   -4.52611107891
|1273> NewECP
|1274> N_core 0
|1275>   lmax f
|1276>   s 2
|1277>    1      0.860000       9.191690  2
|1278>    2      0.172000       0.008301  2
|1279>   p 2
|1280>    1      0.860000      17.997720  2
|1281>    2      0.172000      -0.032600  2
|1282>   d 2
|1283>    1      1.600000      -9.504310  2
|1284>    2      0.320000      -0.151370  2
|1285>   f 1
|1286>    1      1.000000000    0.000000000 2
|1287> end
|1288> Ti>    4.00000000000    3.25401964873   -7.40273383991   -4.52611107891
|1289> NewECP
|1290> N_core 0
|1291>   lmax f
|1292>   s 2
|1293>    1      0.860000       9.191690  2
|1294>    2      0.172000       0.008301  2
|1295>   p 2
|1296>    1      0.860000      17.997720  2
|1297>    2      0.172000      -0.032600  2
|1298>   d 2
|1299>    1      1.600000      -9.504310  2
|1300>    2      0.320000      -0.151370  2
|1301>   f 1
|1302>    1      1.000000000    0.000000000 2
|1303> end
|1304> Ti>    4.00000000000   -3.25401964873   -7.40273383991   -4.52611107891
|1305> NewECP
|1306> N_core 0
|1307>   lmax f
|1308>   s 2
|1309>    1      0.860000       9.191690  2
|1310>    2      0.172000       0.008301  2
|1311>   p 2
|1312>    1      0.860000      17.997720  2
|1313>    2      0.172000      -0.032600  2
|1314>   d 2
|1315>    1      1.600000      -9.504310  2
|1316>    2      0.320000      -0.151370  2
|1317>   f 1
|1318>    1      1.000000000    0.000000000 2
|1319> end
|1320> Ti>    4.00000000000   -6.50803929747    4.44164030394    5.23594786729
|1321> NewECP
|1322> N_core 0
|1323>   lmax f
|1324>   s 2
|1325>    1      0.860000       9.191690  2
|1326>    2      0.172000       0.008301  2
|1327>   p 2
|1328>    1      0.860000      17.997720  2
|1329>    2      0.172000      -0.032600  2
|1330>   d 2
|1331>    1      1.600000      -9.504310  2
|1332>    2      0.320000      -0.151370  2
|1333>   f 1
|1334>    1      1.000000000    0.000000000 2
|1335> end
|1336> Ti>    4.00000000000    6.50803929747    4.44164030394    5.23594786729
|1337> NewECP
|1338> N_core 0
|1339>   lmax f
|1340>   s 2
|1341>    1      0.860000       9.191690  2
|1342>    2      0.172000       0.008301  2
|1343>   p 2
|1344>    1      0.860000      17.997720  2
|1345>    2      0.172000      -0.032600  2
|1346>   d 2
|1347>    1      1.600000      -9.504310  2
|1348>    2      0.320000      -0.151370  2
|1349>   f 1
|1350>    1      1.000000000    0.000000000 2
|1351> end
|1352> Ti>    4.00000000000    6.50803929747   -4.44164030394    5.23594786729
|1353> NewECP
|1354> N_core 0
|1355>   lmax f
|1356>   s 2
|1357>    1      0.860000       9.191690  2
|1358>    2      0.172000       0.008301  2
|1359>   p 2
|1360>    1      0.860000      17.997720  2
|1361>    2      0.172000      -0.032600  2
|1362>   d 2
|1363>    1      1.600000      -9.504310  2
|1364>    2      0.320000      -0.151370  2
|1365>   f 1
|1366>    1      1.000000000    0.000000000 2
|1367> end
|1368> Ti>    4.00000000000   -6.50803929747   -4.44164030394    5.23594786729
|1369> NewECP
|1370> N_core 0
|1371>   lmax f
|1372>   s 2
|1373>    1      0.860000       9.191690  2
|1374>    2      0.172000       0.008301  2
|1375>   p 2
|1376>    1      0.860000      17.997720  2
|1377>    2      0.172000      -0.032600  2
|1378>   d 2
|1379>    1      1.600000      -9.504310  2
|1380>    2      0.320000      -0.151370  2
|1381>   f 1
|1382>    1      1.000000000    0.000000000 2
|1383> end
|1384> Ti>    4.00000000000   -3.25401964873    8.88328060789   -1.27209143018
|1385> NewECP
|1386> N_core 0
|1387>   lmax f
|1388>   s 2
|1389>    1      0.860000       9.191690  2
|1390>    2      0.172000       0.008301  2
|1391>   p 2
|1392>    1      0.860000      17.997720  2
|1393>    2      0.172000      -0.032600  2
|1394>   d 2
|1395>    1      1.600000      -9.504310  2
|1396>    2      0.320000      -0.151370  2
|1397>   f 1
|1398>    1      1.000000000    0.000000000 2
|1399> end
|1400> Ti>    4.00000000000    3.25401964873    8.88328060789   -1.27209143018
|1401> NewECP
|1402> N_core 0
|1403>   lmax f
|1404>   s 2
|1405>    1      0.860000       9.191690  2
|1406>    2      0.172000       0.008301  2
|1407>   p 2
|1408>    1      0.860000      17.997720  2
|1409>    2      0.172000      -0.032600  2
|1410>   d 2
|1411>    1      1.600000      -9.504310  2
|1412>    2      0.320000      -0.151370  2
|1413>   f 1
|1414>    1      1.000000000    0.000000000 2
|1415> end
|1416> Ti>    4.00000000000    3.25401964873   -8.88328060789   -1.27209143018
|1417> NewECP
|1418> N_core 0
|1419>   lmax f
|1420>   s 2
|1421>    1      0.860000       9.191690  2
|1422>    2      0.172000       0.008301  2
|1423>   p 2
|1424>    1      0.860000      17.997720  2
|1425>    2      0.172000      -0.032600  2
|1426>   d 2
|1427>    1      1.600000      -9.504310  2
|1428>    2      0.320000      -0.151370  2
|1429>   f 1
|1430>    1      1.000000000    0.000000000 2
|1431> end
|1432> Ti>    4.00000000000   -3.25401964873   -8.88328060789   -1.27209143018
|1433> NewECP
|1434> N_core 0
|1435>   lmax f
|1436>   s 2
|1437>    1      0.860000       9.191690  2
|1438>    2      0.172000       0.008301  2
|1439>   p 2
|1440>    1      0.860000      17.997720  2
|1441>    2      0.172000      -0.032600  2
|1442>   d 2
|1443>    1      1.600000      -9.504310  2
|1444>    2      0.320000      -0.151370  2
|1445>   f 1
|1446>    1      1.000000000    0.000000000 2
|1447> end
|1448> Ti>    4.00000000000   -9.76205894620    0.00000000000   -1.27209143018
|1449> NewECP
|1450> N_core 0
|1451>   lmax f
|1452>   s 2
|1453>    1      0.860000       9.191690  2
|1454>    2      0.172000       0.008301  2
|1455>   p 2
|1456>    1      0.860000      17.997720  2
|1457>    2      0.172000      -0.032600  2
|1458>   d 2
|1459>    1      1.600000      -9.504310  2
|1460>    2      0.320000      -0.151370  2
|1461>   f 1
|1462>    1      1.000000000    0.000000000 2
|1463> end
|1464> Ti>    4.00000000000    9.76205894620    0.00000000000   -1.27209143018
|1465> NewECP
|1466> N_core 0
|1467>   lmax f
|1468>   s 2
|1469>    1      0.860000       9.191690  2
|1470>    2      0.172000       0.008301  2
|1471>   p 2
|1472>    1      0.860000      17.997720  2
|1473>    2      0.172000      -0.032600  2
|1474>   d 2
|1475>    1      1.600000      -9.504310  2
|1476>    2      0.320000      -0.151370  2
|1477>   f 1
|1478>    1      1.000000000    0.000000000 2
|1479> end
|1480> Ti>    4.00000000000   -6.50803929747    5.92218707193   -4.52611107891
|1481> NewECP
|1482> N_core 0
|1483>   lmax f
|1484>   s 2
|1485>    1      0.860000       9.191690  2
|1486>    2      0.172000       0.008301  2
|1487>   p 2
|1488>    1      0.860000      17.997720  2
|1489>    2      0.172000      -0.032600  2
|1490>   d 2
|1491>    1      1.600000      -9.504310  2
|1492>    2      0.320000      -0.151370  2
|1493>   f 1
|1494>    1      1.000000000    0.000000000 2
|1495> end
|1496> Ti>    4.00000000000    6.50803929747    5.92218707193   -4.52611107891
|1497> NewECP
|1498> N_core 0
|1499>   lmax f
|1500>   s 2
|1501>    1      0.860000       9.191690  2
|1502>    2      0.172000       0.008301  2
|1503>   p 2
|1504>    1      0.860000      17.997720  2
|1505>    2      0.172000      -0.032600  2
|1506>   d 2
|1507>    1      1.600000      -9.504310  2
|1508>    2      0.320000      -0.151370  2
|1509>   f 1
|1510>    1      1.000000000    0.000000000 2
|1511> end
|1512> Ti>    4.00000000000    6.50803929747   -5.92218707193   -4.52611107891
|1513> NewECP
|1514> N_core 0
|1515>   lmax f
|1516>   s 2
|1517>    1      0.860000       9.191690  2
|1518>    2      0.172000       0.008301  2
|1519>   p 2
|1520>    1      0.860000      17.997720  2
|1521>    2      0.172000      -0.032600  2
|1522>   d 2
|1523>    1      1.600000      -9.504310  2
|1524>    2      0.320000      -0.151370  2
|1525>   f 1
|1526>    1      1.000000000    0.000000000 2
|1527> end
|1528> Ti>    4.00000000000   -6.50803929747   -5.92218707193   -4.52611107891
|1529> NewECP
|1530> N_core 0
|1531>   lmax f
|1532>   s 2
|1533>    1      0.860000       9.191690  2
|1534>    2      0.172000       0.008301  2
|1535>   p 2
|1536>    1      0.860000      17.997720  2
|1537>    2      0.172000      -0.032600  2
|1538>   d 2
|1539>    1      1.600000      -9.504310  2
|1540>    2      0.320000      -0.151370  2
|1541>   f 1
|1542>    1      1.000000000    0.000000000 2
|1543> end
|1544> Ti>    4.00000000000   -6.50803929747    7.40273383991   -1.27209143018
|1545> NewECP
|1546> N_core 0
|1547>   lmax f
|1548>   s 2
|1549>    1      0.860000       9.191690  2
|1550>    2      0.172000       0.008301  2
|1551>   p 2
|1552>    1      0.860000      17.997720  2
|1553>    2      0.172000      -0.032600  2
|1554>   d 2
|1555>    1      1.600000      -9.504310  2
|1556>    2      0.320000      -0.151370  2
|1557>   f 1
|1558>    1      1.000000000    0.000000000 2
|1559> end
|1560> Ti>    4.00000000000    6.50803929747    7.40273383991   -1.27209143018
|1561> NewECP
|1562> N_core 0
|1563>   lmax f
|1564>   s 2
|1565>    1      0.860000       9.191690  2
|1566>    2      0.172000       0.008301  2
|1567>   p 2
|1568>    1      0.860000      17.997720  2
|1569>    2      0.172000      -0.032600  2
|1570>   d 2
|1571>    1      1.600000      -9.504310  2
|1572>    2      0.320000      -0.151370  2
|1573>   f 1
|1574>    1      1.000000000    0.000000000 2
|1575> end
|1576> Ti>    4.00000000000    6.50803929747   -7.40273383991   -1.27209143018
|1577> NewECP
|1578> N_core 0
|1579>   lmax f
|1580>   s 2
|1581>    1      0.860000       9.191690  2
|1582>    2      0.172000       0.008301  2
|1583>   p 2
|1584>    1      0.860000      17.997720  2
|1585>    2      0.172000      -0.032600  2
|1586>   d 2
|1587>    1      1.600000      -9.504310  2
|1588>    2      0.320000      -0.151370  2
|1589>   f 1
|1590>    1      1.000000000    0.000000000 2
|1591> end
|1592> Ti>    4.00000000000   -6.50803929747   -7.40273383991   -1.27209143018
|1593> NewECP
|1594> N_core 0
|1595>   lmax f
|1596>   s 2
|1597>    1      0.860000       9.191690  2
|1598>    2      0.172000       0.008301  2
|1599>   p 2
|1600>    1      0.860000      17.997720  2
|1601>    2      0.172000      -0.032600  2
|1602>   d 2
|1603>    1      1.600000      -9.504310  2
|1604>    2      0.320000      -0.151370  2
|1605>   f 1
|1606>    1      1.000000000    0.000000000 2
|1607> end
|1608> Ti>    4.00000000000    0.00000000000    8.88328060789   -4.52611107891
|1609> NewECP
|1610> N_core 0
|1611>   lmax f
|1612>   s 2
|1613>    1      0.860000       9.191690  2
|1614>    2      0.172000       0.008301  2
|1615>   p 2
|1616>    1      0.860000      17.997720  2
|1617>    2      0.172000      -0.032600  2
|1618>   d 2
|1619>    1      1.600000      -9.504310  2
|1620>    2      0.320000      -0.151370  2
|1621>   f 1
|1622>    1      1.000000000    0.000000000 2
|1623> end
|1624> Ti>    4.00000000000    0.00000000000   -8.88328060789   -4.52611107891
|1625> NewECP
|1626> N_core 0
|1627>   lmax f
|1628>   s 2
|1629>    1      0.860000       9.191690  2
|1630>    2      0.172000       0.008301  2
|1631>   p 2
|1632>    1      0.860000      17.997720  2
|1633>    2      0.172000      -0.032600  2
|1634>   d 2
|1635>    1      1.600000      -9.504310  2
|1636>    2      0.320000      -0.151370  2
|1637>   f 1
|1638>    1      1.000000000    0.000000000 2
|1639> end
|1640> Ti>    4.00000000000   -9.76205894620    1.48054676798    1.98192821856
|1641> NewECP
|1642> N_core 0
|1643>   lmax f
|1644>   s 2
|1645>    1      0.860000       9.191690  2
|1646>    2      0.172000       0.008301  2
|1647>   p 2
|1648>    1      0.860000      17.997720  2
|1649>    2      0.172000      -0.032600  2
|1650>   d 2
|1651>    1      1.600000      -9.504310  2
|1652>    2      0.320000      -0.151370  2
|1653>   f 1
|1654>    1      1.000000000    0.000000000 2
|1655> end
|1656> Ti>    4.00000000000    9.76205894620    1.48054676798    1.98192821856
|1657> NewECP
|1658> N_core 0
|1659>   lmax f
|1660>   s 2
|1661>    1      0.860000       9.191690  2
|1662>    2      0.172000       0.008301  2
|1663>   p 2
|1664>    1      0.860000      17.997720  2
|1665>    2      0.172000      -0.032600  2
|1666>   d 2
|1667>    1      1.600000      -9.504310  2
|1668>    2      0.320000      -0.151370  2
|1669>   f 1
|1670>    1      1.000000000    0.000000000 2
|1671> end
|1672> Ti>    4.00000000000    9.76205894620   -1.48054676798    1.98192821856
|1673> NewECP
|1674> N_core 0
|1675>   lmax f
|1676>   s 2
|1677>    1      0.860000       9.191690  2
|1678>    2      0.172000       0.008301  2
|1679>   p 2
|1680>    1      0.860000      17.997720  2
|1681>    2      0.172000      -0.032600  2
|1682>   d 2
|1683>    1      1.600000      -9.504310  2
|1684>    2      0.320000      -0.151370  2
|1685>   f 1
|1686>    1      1.000000000    0.000000000 2
|1687> end
|1688> Ti>    4.00000000000   -9.76205894620   -1.48054676798    1.98192821856
|1689> NewECP
|1690> N_core 0
|1691>   lmax f
|1692>   s 2
|1693>    1      0.860000       9.191690  2
|1694>    2      0.172000       0.008301  2
|1695>   p 2
|1696>    1      0.860000      17.997720  2
|1697>    2      0.172000      -0.032600  2
|1698>   d 2
|1699>    1      1.600000      -9.504310  2
|1700>    2      0.320000      -0.151370  2
|1701>   f 1
|1702>    1      1.000000000    0.000000000 2
|1703> end
|1704> Ti>    4.00000000000   -3.25401964873    4.44164030394    8.48996751602
|1705> NewECP
|1706> N_core 0
|1707>   lmax f
|1708>   s 2
|1709>    1      0.860000       9.191690  2
|1710>    2      0.172000       0.008301  2
|1711>   p 2
|1712>    1      0.860000      17.997720  2
|1713>    2      0.172000      -0.032600  2
|1714>   d 2
|1715>    1      1.600000      -9.504310  2
|1716>    2      0.320000      -0.151370  2
|1717>   f 1
|1718>    1      1.000000000    0.000000000 2
|1719> end
|1720> Ti>    4.00000000000    3.25401964873    4.44164030394    8.48996751602
|1721> NewECP
|1722> N_core 0
|1723>   lmax f
|1724>   s 2
|1725>    1      0.860000       9.191690  2
|1726>    2      0.172000       0.008301  2
|1727>   p 2
|1728>    1      0.860000      17.997720  2
|1729>    2      0.172000      -0.032600  2
|1730>   d 2
|1731>    1      1.600000      -9.504310  2
|1732>    2      0.320000      -0.151370  2
|1733>   f 1
|1734>    1      1.000000000    0.000000000 2
|1735> end
|1736> Ti>    4.00000000000    3.25401964873   -4.44164030394    8.48996751602
|1737> NewECP
|1738> N_core 0
|1739>   lmax f
|1740>   s 2
|1741>    1      0.860000       9.191690  2
|1742>    2      0.172000       0.008301  2
|1743>   p 2
|1744>    1      0.860000      17.997720  2
|1745>    2      0.172000      -0.032600  2
|1746>   d 2
|1747>    1      1.600000      -9.504310  2
|1748>    2      0.320000      -0.151370  2
|1749>   f 1
|1750>    1      1.000000000    0.000000000 2
|1751> end
|1752> Ti>    4.00000000000   -3.25401964873   -4.44164030394    8.48996751602
|1753> NewECP
|1754> N_core 0
|1755>   lmax f
|1756>   s 2
|1757>    1      0.860000       9.191690  2
|1758>    2      0.172000       0.008301  2
|1759>   p 2
|1760>    1      0.860000      17.997720  2
|1761>    2      0.172000      -0.032600  2
|1762>   d 2
|1763>    1      1.600000      -9.504310  2
|1764>    2      0.320000      -0.151370  2
|1765>   f 1
|1766>    1      1.000000000    0.000000000 2
|1767> end
|1768> Ti>    4.00000000000   -6.50803929747    1.48054676798   -7.78013072764
|1769> NewECP
|1770> N_core 0
|1771>   lmax f
|1772>   s 2
|1773>    1      0.860000       9.191690  2
|1774>    2      0.172000       0.008301  2
|1775>   p 2
|1776>    1      0.860000      17.997720  2
|1777>    2      0.172000      -0.032600  2
|1778>   d 2
|1779>    1      1.600000      -9.504310  2
|1780>    2      0.320000      -0.151370  2
|1781>   f 1
|1782>    1      1.000000000    0.000000000 2
|1783> end
|1784> Ti>    4.00000000000    6.50803929747    1.48054676798   -7.78013072764
|1785> NewECP
|1786> N_core 0
|1787>   lmax f
|1788>   s 2
|1789>    1      0.860000       9.191690  2
|1790>    2      0.172000       0.008301  2
|1791>   p 2
|1792>    1      0.860000      17.997720  2
|1793>    2      0.172000      -0.032600  2
|1794>   d 2
|1795>    1      1.600000      -9.504310  2
|1796>    2      0.320000      -0.151370  2
|1797>   f 1
|1798>    1      1.000000000    0.000000000 2
|1799> end
|1800> Ti>    4.00000000000    6.50803929747   -1.48054676798   -7.78013072764
|1801> NewECP
|1802> N_core 0
|1803>   lmax f
|1804>   s 2
|1805>    1      0.860000       9.191690  2
|1806>    2      0.172000       0.008301  2
|1807>   p 2
|1808>    1      0.860000      17.997720  2
|1809>    2      0.172000      -0.032600  2
|1810>   d 2
|1811>    1      1.600000      -9.504310  2
|1812>    2      0.320000      -0.151370  2
|1813>   f 1
|1814>    1      1.000000000    0.000000000 2
|1815> end
|1816> Ti>    4.00000000000   -6.50803929747   -1.48054676798   -7.78013072764
|1817> NewECP
|1818> N_core 0
|1819>   lmax f
|1820>   s 2
|1821>    1      0.860000       9.191690  2
|1822>    2      0.172000       0.008301  2
|1823>   p 2
|1824>    1      0.860000      17.997720  2
|1825>    2      0.172000      -0.032600  2
|1826>   d 2
|1827>    1      1.600000      -9.504310  2
|1828>    2      0.320000      -0.151370  2
|1829>   f 1
|1830>    1      1.000000000    0.000000000 2
|1831> end
|1832> Ti>    4.00000000000   -9.76205894620    2.96109353596   -1.27209143018
|1833> NewECP
|1834> N_core 0
|1835>   lmax f
|1836>   s 2
|1837>    1      0.860000       9.191690  2
|1838>    2      0.172000       0.008301  2
|1839>   p 2
|1840>    1      0.860000      17.997720  2
|1841>    2      0.172000      -0.032600  2
|1842>   d 2
|1843>    1      1.600000      -9.504310  2
|1844>    2      0.320000      -0.151370  2
|1845>   f 1
|1846>    1      1.000000000    0.000000000 2
|1847> end
|1848> Ti>    4.00000000000    9.76205894620    2.96109353596   -1.27209143018
|1849> NewECP
|1850> N_core 0
|1851>   lmax f
|1852>   s 2
|1853>    1      0.860000       9.191690  2
|1854>    2      0.172000       0.008301  2
|1855>   p 2
|1856>    1      0.860000      17.997720  2
|1857>    2      0.172000      -0.032600  2
|1858>   d 2
|1859>    1      1.600000      -9.504310  2
|1860>    2      0.320000      -0.151370  2
|1861>   f 1
|1862>    1      1.000000000    0.000000000 2
|1863> end
|1864> Ti>    4.00000000000    9.76205894620   -2.96109353596   -1.27209143018
|1865> NewECP
|1866> N_core 0
|1867>   lmax f
|1868>   s 2
|1869>    1      0.860000       9.191690  2
|1870>    2      0.172000       0.008301  2
|1871>   p 2
|1872>    1      0.860000      17.997720  2
|1873>    2      0.172000      -0.032600  2
|1874>   d 2
|1875>    1      1.600000      -9.504310  2
|1876>    2      0.320000      -0.151370  2
|1877>   f 1
|1878>    1      1.000000000    0.000000000 2
|1879> end
|1880> Ti>    4.00000000000   -9.76205894620   -2.96109353596   -1.27209143018
|1881> NewECP
|1882> N_core 0
|1883>   lmax f
|1884>   s 2
|1885>    1      0.860000       9.191690  2
|1886>    2      0.172000       0.008301  2
|1887>   p 2
|1888>    1      0.860000      17.997720  2
|1889>    2      0.172000      -0.032600  2
|1890>   d 2
|1891>    1      1.600000      -9.504310  2
|1892>    2      0.320000      -0.151370  2
|1893>   f 1
|1894>    1      1.000000000    0.000000000 2
|1895> end
|1896> Ti>    4.00000000000   -3.25401964873    5.92218707193   -7.78013072764
|1897> NewECP
|1898> N_core 0
|1899>   lmax f
|1900>   s 2
|1901>    1      0.860000       9.191690  2
|1902>    2      0.172000       0.008301  2
|1903>   p 2
|1904>    1      0.860000      17.997720  2
|1905>    2      0.172000      -0.032600  2
|1906>   d 2
|1907>    1      1.600000      -9.504310  2
|1908>    2      0.320000      -0.151370  2
|1909>   f 1
|1910>    1      1.000000000    0.000000000 2
|1911> end
|1912> Ti>    4.00000000000    3.25401964873    5.92218707193   -7.78013072764
|1913> NewECP
|1914> N_core 0
|1915>   lmax f
|1916>   s 2
|1917>    1      0.860000       9.191690  2
|1918>    2      0.172000       0.008301  2
|1919>   p 2
|1920>    1      0.860000      17.997720  2
|1921>    2      0.172000      -0.032600  2
|1922>   d 2
|1923>    1      1.600000      -9.504310  2
|1924>    2      0.320000      -0.151370  2
|1925>   f 1
|1926>    1      1.000000000    0.000000000 2
|1927> end
|1928> Ti>    4.00000000000    3.25401964873   -5.92218707193   -7.78013072764
|1929> NewECP
|1930> N_core 0
|1931>   lmax f
|1932>   s 2
|1933>    1      0.860000       9.191690  2
|1934>    2      0.172000       0.008301  2
|1935>   p 2
|1936>    1      0.860000      17.997720  2
|1937>    2      0.172000      -0.032600  2
|1938>   d 2
|1939>    1      1.600000      -9.504310  2
|1940>    2      0.320000      -0.151370  2
|1941>   f 1
|1942>    1      1.000000000    0.000000000 2
|1943> end
|1944> Ti>    4.00000000000   -3.25401964873   -5.92218707193   -7.78013072764
|1945> NewECP
|1946> N_core 0
|1947>   lmax f
|1948>   s 2
|1949>    1      0.860000       9.191690  2
|1950>    2      0.172000       0.008301  2
|1951>   p 2
|1952>    1      0.860000      17.997720  2
|1953>    2      0.172000      -0.032600  2
|1954>   d 2
|1955>    1      1.600000      -9.504310  2
|1956>    2      0.320000      -0.151370  2
|1957>   f 1
|1958>    1      1.000000000    0.000000000 2
|1959> end
|1960> Ti>    4.00000000000    0.00000000000    5.92218707193    8.48996751602
|1961> NewECP
|1962> N_core 0
|1963>   lmax f
|1964>   s 2
|1965>    1      0.860000       9.191690  2
|1966>    2      0.172000       0.008301  2
|1967>   p 2
|1968>    1      0.860000      17.997720  2
|1969>    2      0.172000      -0.032600  2
|1970>   d 2
|1971>    1      1.600000      -9.504310  2
|1972>    2      0.320000      -0.151370  2
|1973>   f 1
|1974>    1      1.000000000    0.000000000 2
|1975> end
|1976> Ti>    4.00000000000    0.00000000000   -5.92218707193    8.48996751602
|1977> NewECP
|1978> N_core 0
|1979>   lmax f
|1980>   s 2
|1981>    1      0.860000       9.191690  2
|1982>    2      0.172000       0.008301  2
|1983>   p 2
|1984>    1      0.860000      17.997720  2
|1985>    2      0.172000      -0.032600  2
|1986>   d 2
|1987>    1      1.600000      -9.504310  2
|1988>    2      0.320000      -0.151370  2
|1989>   f 1
|1990>    1      1.000000000    0.000000000 2
|1991> end
|1992> Ti>    4.00000000000    0.00000000000   10.36382737587   -1.27209143018
|1993> NewECP
|1994> N_core 0
|1995>   lmax f
|1996>   s 2
|1997>    1      0.860000       9.191690  2
|1998>    2      0.172000       0.008301  2
|1999>   p 2
|2000>    1      0.860000      17.997720  2
|2001>    2      0.172000      -0.032600  2
|2002>   d 2
|2003>    1      1.600000      -9.504310  2
|2004>    2      0.320000      -0.151370  2
|2005>   f 1
|2006>    1      1.000000000    0.000000000 2
|2007> end
|2008> Ti>    4.00000000000    0.00000000000  -10.36382737587   -1.27209143018
|2009> NewECP
|2010> N_core 0
|2011>   lmax f
|2012>   s 2
|2013>    1      0.860000       9.191690  2
|2014>    2      0.172000       0.008301  2
|2015>   p 2
|2016>    1      0.860000      17.997720  2
|2017>    2      0.172000      -0.032600  2
|2018>   d 2
|2019>    1      1.600000      -9.504310  2
|2020>    2      0.320000      -0.151370  2
|2021>   f 1
|2022>    1      1.000000000    0.000000000 2
|2023> end
|2024> Ti>    4.00000000000   -6.50803929747    0.00000000000    8.48996751602
|2025> NewECP
|2026> N_core 0
|2027>   lmax f
|2028>   s 2
|2029>    1      0.860000       9.191690  2
|2030>    2      0.172000       0.008301  2
|2031>   p 2
|2032>    1      0.860000      17.997720  2
|2033>    2      0.172000      -0.032600  2
|2034>   d 2
|2035>    1      1.600000      -9.504310  2
|2036>    2      0.320000      -0.151370  2
|2037>   f 1
|2038>    1      1.000000000    0.000000000 2
|2039> end
|2040> Ti>    4.00000000000    6.50803929747    0.00000000000    8.48996751602
|2041> NewECP
|2042> N_core 0
|2043>   lmax f
|2044>   s 2
|2045>    1      0.860000       9.191690  2
|2046>    2      0.172000       0.008301  2
|2047>   p 2
|2048>    1      0.860000      17.997720  2
|2049>    2      0.172000      -0.032600  2
|2050>   d 2
|2051>    1      1.600000      -9.504310  2
|2052>    2      0.320000      -0.151370  2
|2053>   f 1
|2054>    1      1.000000000    0.000000000 2
|2055> end
|2056> Ti>    4.00000000000    0.00000000000    7.40273383991   -7.78013072764
|2057> NewECP
|2058> N_core 0
|2059>   lmax f
|2060>   s 2
|2061>    1      0.860000       9.191690  2
|2062>    2      0.172000       0.008301  2
|2063>   p 2
|2064>    1      0.860000      17.997720  2
|2065>    2      0.172000      -0.032600  2
|2066>   d 2
|2067>    1      1.600000      -9.504310  2
|2068>    2      0.320000      -0.151370  2
|2069>   f 1
|2070>    1      1.000000000    0.000000000 2
|2071> end
|2072> Ti>    4.00000000000    0.00000000000   -7.40273383991   -7.78013072764
|2073> NewECP
|2074> N_core 0
|2075>   lmax f
|2076>   s 2
|2077>    1      0.860000       9.191690  2
|2078>    2      0.172000       0.008301  2
|2079>   p 2
|2080>    1      0.860000      17.997720  2
|2081>    2      0.172000      -0.032600  2
|2082>   d 2
|2083>    1      1.600000      -9.504310  2
|2084>    2      0.320000      -0.151370  2
|2085>   f 1
|2086>    1      1.000000000    0.000000000 2
|2087> end
|2088> Ti>    4.00000000000   -3.25401964873    8.88328060789    5.23594786729
|2089> NewECP
|2090> N_core 0
|2091>   lmax f
|2092>   s 2
|2093>    1      0.860000       9.191690  2
|2094>    2      0.172000       0.008301  2
|2095>   p 2
|2096>    1      0.860000      17.997720  2
|2097>    2      0.172000      -0.032600  2
|2098>   d 2
|2099>    1      1.600000      -9.504310  2
|2100>    2      0.320000      -0.151370  2
|2101>   f 1
|2102>    1      1.000000000    0.000000000 2
|2103> end
|2104> Ti>    4.00000000000    3.25401964873    8.88328060789    5.23594786729
|2105> NewECP
|2106> N_core 0
|2107>   lmax f
|2108>   s 2
|2109>    1      0.860000       9.191690  2
|2110>    2      0.172000       0.008301  2
|2111>   p 2
|2112>    1      0.860000      17.997720  2
|2113>    2      0.172000      -0.032600  2
|2114>   d 2
|2115>    1      1.600000      -9.504310  2
|2116>    2      0.320000      -0.151370  2
|2117>   f 1
|2118>    1      1.000000000    0.000000000 2
|2119> end
|2120> Ti>    4.00000000000    3.25401964873   -8.88328060789    5.23594786729
|2121> NewECP
|2122> N_core 0
|2123>   lmax f
|2124>   s 2
[...]
315 Q      0.0000     4.0000     4.0000     0.0000     0.0000     0.0000
316 Q      0.0000     4.0000     4.0000     0.0000     0.0000     0.0000
317 Q      0.0000     4.0000     4.0000     0.0000     0.0000     0.0000
318 Q      0.0000     4.0000     4.0000     0.0000     0.0000     0.0000
319 Q      0.0000     4.0000     4.0000     0.0000     0.0000     0.0000
320 Q      0.0000     4.0000     4.0000     0.0000     0.0000     0.0000
321 Q      0.0000     4.0000     4.0000     0.0000     0.0000     0.0000
322 Q      0.0000     4.0000     4.0000     0.0000     0.0000     0.0000
323 Q      0.0000     4.0000     4.0000     0.0000     0.0000     0.0000
324 Q      0.0000     4.0000     4.0000     0.0000     0.0000     0.0000
325 Q      0.0000     4.0000     4.0000     0.0000     0.0000     0.0000
326 Q      0.0000     4.0000     4.0000     0.0000     0.0000     0.0000
327 Q      0.0000     4.0000     4.0000     0.0000     0.0000     0.0000
328 Q      0.0000     4.0000     4.0000     0.0000     0.0000     0.0000
329 Q      0.0000     4.0000     4.0000     0.0000     0.0000     0.0000
330 Q      0.0000     4.0000     4.0000     0.0000     0.0000     0.0000
331 Q      0.0000     4.0000     4.0000     0.0000     0.0000     0.0000
332 Q      0.0000     4.0000     4.0000     0.0000     0.0000     0.0000
333 Q      0.0000     4.0000     4.0000     0.0000     0.0000     0.0000
334 Q      0.0000     4.0000     4.0000     0.0000     0.0000     0.0000
335 Q      0.0000     4.0000     4.0000     0.0000     0.0000     0.0000
336 Q      0.0000     4.0000     4.0000     0.0000     0.0000     0.0000
337 Q      0.0000     4.0000     4.0000     0.0000     0.0000     0.0000
338 Q      0.0000     4.0000     4.0000     0.0000     0.0000     0.0000
339 Q      0.0000     4.0000     4.0000     0.0000     0.0000     0.0000
340 Q      0.0000     4.0000     4.0000     0.0000     0.0000     0.0000
341 Q      0.0000     4.0000     4.0000     0.0000     0.0000     0.0000
342 Q      0.0000     4.0000     4.0000     0.0000     0.0000     0.0000
343 Q      0.0000     4.0000     4.0000     0.0000     0.0000     0.0000
344 Q      0.0000     4.0000     4.0000     0.0000     0.0000     0.0000
345 Q      0.0000     4.0000     4.0000     0.0000     0.0000     0.0000
346 Q      0.0000     4.0000     4.0000     0.0000     0.0000     0.0000
347 Q      0.0000     4.0000     4.0000     0.0000     0.0000     0.0000
348 Q      0.0000     4.0000     4.0000     0.0000     0.0000     0.0000
349 Q      0.0000     4.0000     4.0000     0.0000     0.0000     0.0000
350 Q      0.0000     4.0000     4.0000     0.0000     0.0000     0.0000
351 Q      0.0000     4.0000     4.0000     0.0000     0.0000     0.0000
352 Q      0.0000     4.0000     4.0000     0.0000     0.0000     0.0000
353 Q      0.0000     4.0000     4.0000     0.0000     0.0000     0.0000
354 Q      0.0000     4.0000     4.0000     0.0000     0.0000     0.0000
355 Q      0.0000     4.0000     4.0000     0.0000     0.0000     0.0000
356 Q      0.0000     4.0000     4.0000     0.0000     0.0000     0.0000
357 Q      0.0000     4.0000     4.0000     0.0000     0.0000     0.0000
358 Q      0.0000     4.0000     4.0000     0.0000     0.0000     0.0000
359 Q      0.0000     4.0000     4.0000     0.0000     0.0000     0.0000
360 Q      0.0000     4.0000     4.0000     0.0000     0.0000     0.0000
361 Q      0.0000     4.0000     4.0000     0.0000     0.0000     0.0000
362 Q      0.0000     4.0000     4.0000     0.0000     0.0000     0.0000
363 Q      0.0000     4.0000     4.0000     0.0000     0.0000     0.0000
364 Q      0.0000     4.0000     4.0000     0.0000     0.0000     0.0000
365 Q      0.0000     4.0000     4.0000     0.0000     0.0000     0.0000
366 Q      0.0000     4.0000     4.0000     0.0000     0.0000     0.0000
367 Q      0.0000     4.0000     4.0000     0.0000     0.0000     0.0000
368 Q      0.0000     4.0000     4.0000     0.0000     0.0000     0.0000
369 Q      0.0000     4.0000     4.0000     0.0000     0.0000     0.0000
370 Q      0.0000     4.0000     4.0000     0.0000     0.0000     0.0000
371 Q      0.0000     4.0000     4.0000     0.0000     0.0000     0.0000
372 Q      0.0000     4.0000     4.0000     0.0000     0.0000     0.0000
373 Q      0.0000     4.0000     4.0000     0.0000     0.0000     0.0000
374 Q      0.0000     4.0000     4.0000     0.0000     0.0000     0.0000
375 Q      0.0000     4.0000     4.0000     0.0000     0.0000     0.0000
376 Q      0.0000     4.0000     4.0000     0.0000     0.0000     0.0000
377 Q      0.0000     4.0000     4.0000     0.0000     0.0000     0.0000

  Mayer bond orders larger than 0.100000
B(  0-O ,  1-Ti) :   0.6201 B(  0-O ,  2-Ti) :   0.6199 B(  0-O ,  3-Ti) :   0.4212 
B(  0-O , 17-Ti) :   0.2056 B(  0-O , 18-Ti) :   0.2057 B(  1-Ti,  2-Ti) :  -0.6415 
B(  1-Ti,  4-O ) :   0.3951 B(  1-Ti,  9-O ) :   0.2777 B(  1-Ti, 10-O ) :   0.2776 
B(  1-Ti, 13-O ) :   0.1811 B(  1-Ti, 21-O ) :   0.1712 B(  1-Ti, 32-Ti) :  -0.2539 
B(  1-Ti, 33-Ti) :  -0.2475 B(  1-Ti, 34-Ti) :  -0.2475 B(  1-Ti, 35-Ti) :  -0.1017 
B(  1-Ti, 36-Ti) :  -0.1016 B(  1-Ti, 39-O ) :   0.1793 B(  1-Ti, 40-O ) :   0.1794 
B(  1-Ti, 41-Ti) :  -0.8288 B(  1-Ti, 47-O ) :  -0.1271 B(  1-Ti, 48-O ) :  -0.1271 
B(  1-Ti, 57-O ) :  -0.3547 B(  1-Ti, 58-O ) :  -0.3548 B(  1-Ti, 69-O ) :  -0.1243 
B(  1-Ti, 70-O ) :  -0.1246 B(  1-Ti, 89-O ) :  -0.1011 B(  1-Ti, 95-O ) :   0.1951 
B(  1-Ti,107-O ) :  -0.1039 B(  2-Ti,  4-O ) :   0.3948 B(  2-Ti, 11-O ) :   0.2776 
B(  2-Ti, 12-O ) :   0.2777 B(  2-Ti, 14-O ) :   0.1812 B(  2-Ti, 22-O ) :   0.1711 
B(  2-Ti, 32-Ti) :  -0.2542 B(  2-Ti, 33-Ti) :  -0.1016 B(  2-Ti, 34-Ti) :  -0.1016 
B(  2-Ti, 35-Ti) :  -0.2475 B(  2-Ti, 36-Ti) :  -0.2477 B(  2-Ti, 39-O ) :   0.1792 
B(  2-Ti, 40-O ) :   0.1796 B(  2-Ti, 42-Ti) :  -0.8285 B(  2-Ti, 49-O ) :  -0.1272 
B(  2-Ti, 50-O ) :  -0.1272 B(  2-Ti, 59-O ) :  -0.3544 B(  2-Ti, 60-O ) :  -0.3546 
B(  2-Ti, 71-O ) :  -0.1243 B(  2-Ti, 72-O ) :  -0.1243 B(  2-Ti, 90-O ) :  -0.1010 
B(  2-Ti, 96-O ) :   0.1953 B(  2-Ti,107-O ) :  -0.1041 B(  3-Ti,  5-O ) :   0.2206 
B(  3-Ti,  6-O ) :   0.2202 B(  3-Ti,  7-O ) :   0.2210 B(  3-Ti,  8-O ) :   0.2210 
B(  3-Ti,  9-O ) :   0.1233 B(  3-Ti, 10-O ) :   0.1233 B(  3-Ti, 11-O ) :   0.1232 
B(  3-Ti, 12-O ) :   0.1232 B(  3-Ti, 13-O ) :  -0.1091 B(  3-Ti, 14-O ) :  -0.1093 
B(  3-Ti, 17-Ti) :   0.1386 B(  3-Ti, 18-Ti) :   0.1388 B(  3-Ti, 19-Ti) :  -0.7426 
B(  3-Ti, 20-Ti) :  -0.7435 B(  3-Ti, 23-O ) :  -0.2156 B(  3-Ti, 24-Ti) :  -0.1865 
B(  3-Ti, 25-Ti) :  -0.1865 B(  3-Ti, 26-Ti) :  -0.1866 B(  3-Ti, 27-Ti) :  -0.1864 
B(  3-Ti, 41-Ti) :  -0.1125 B(  3-Ti, 42-Ti) :  -0.1126 B(  3-Ti, 51-O ) :   0.3558 
B(  3-Ti, 52-O ) :   0.3535 B(  3-Ti, 53-O ) :  -0.1125 B(  3-Ti, 54-O ) :  -0.1126 
B(  3-Ti, 55-O ) :  -0.1122 B(  3-Ti, 56-O ) :  -0.1123 B(  3-Ti, 63-Ti) :  -0.1855 
B(  3-Ti, 64-Ti) :  -0.1862 B(  3-Ti, 65-O ) :   0.1352 B(  3-Ti, 66-O ) :   0.1355 
B(  3-Ti, 67-O ) :   0.1352 B(  3-Ti, 68-O ) :   0.1352 B(  4-O , 17-Ti) :   0.1532 
B(  4-O , 18-Ti) :   0.1534 B(  4-O , 32-Ti) :   1.2116 B(  5-O , 19-Ti) :   0.9788 
B(  5-O , 24-Ti) :   0.9737 B(  6-O , 19-Ti) :   0.9788 B(  6-O , 25-Ti) :   0.9738 
B(  7-O , 20-Ti) :   0.9784 B(  7-O , 26-Ti) :   0.9740 B(  8-O , 20-Ti) :   0.9784 
B(  8-O , 27-Ti) :   0.9738 B(  9-O , 17-Ti) :   0.5848 B(  9-O , 33-Ti) :   1.0996 
B( 10-O , 18-Ti) :   0.5849 B( 10-O , 34-Ti) :   1.0996 B( 11-O , 18-Ti) :   0.5847 
B( 11-O , 35-Ti) :   1.0997 B( 12-O , 17-Ti) :   0.5847 B( 12-O , 36-Ti) :   1.0996 
B( 13-O , 19-Ti) :   0.7555 B( 13-O , 41-Ti) :   1.1272 B( 14-O , 20-Ti) :   0.7554 
B( 14-O , 42-Ti) :   1.1272 B( 15-O , 17-Ti) :   0.2110 B( 15-O , 24-Ti) :   0.9284 
B( 15-O , 27-Ti) :   0.9284 B( 16-O , 18-Ti) :   0.2110 B( 16-O , 25-Ti) :   0.9283 
B( 16-O , 26-Ti) :   0.9286 B( 17-Ti, 24-Ti) :  -0.1033 B( 17-Ti, 27-Ti) :  -0.1035 
B( 17-Ti, 28-O ) :  -0.3194 B( 17-Ti, 31-O ) :  -0.3194 B( 17-Ti, 33-Ti) :  -0.5813 
B( 17-Ti, 36-Ti) :  -0.5813 B( 17-Ti, 69-O ) :  -0.3346 B( 17-Ti, 72-O ) :  -0.3344 
B( 17-Ti, 73-Ti) :  -0.2971 B( 17-Ti, 76-Ti) :  -0.2969 B( 17-Ti, 81-O ) :   0.1788 
B( 17-Ti, 84-O ) :   0.1788 B( 17-Ti,105-O ) :  -0.1892 B( 17-Ti,114-Ti) :  -0.1253 
B( 17-Ti,117-Ti) :  -0.1253 B( 18-Ti, 25-Ti) :  -0.1033 B( 18-Ti, 26-Ti) :  -0.1037 
B( 18-Ti, 29-O ) :  -0.3196 B( 18-Ti, 30-O ) :  -0.3193 B( 18-Ti, 34-Ti) :  -0.5812 
B( 18-Ti, 35-Ti) :  -0.5815 B( 18-Ti, 70-O ) :  -0.3343 B( 18-Ti, 71-O ) :  -0.3345 
B( 18-Ti, 74-Ti) :  -0.2970 B( 18-Ti, 75-Ti) :  -0.2970 B( 18-Ti, 82-O ) :   0.1786 
B( 18-Ti, 83-O ) :   0.1787 B( 18-Ti,106-O ) :  -0.1891 B( 18-Ti,115-Ti) :  -0.1253 
B( 18-Ti,116-Ti) :  -0.1253 B( 19-Ti, 41-Ti) :  -0.2124 B( 19-Ti, 51-O ) :  -1.3913 
B( 19-Ti, 53-O ) :   0.3071 B( 19-Ti, 54-O ) :   0.3071 B( 19-Ti, 57-O ) :  -0.1314 
B( 19-Ti, 58-O ) :  -0.1313 B( 19-Ti, 63-Ti) :  -0.2624 B( 19-Ti, 65-O ) :  -0.4319 
B( 19-Ti, 66-O ) :  -0.4318 B( 19-Ti, 77-O ) :  -0.1893 B( 19-Ti, 78-O ) :  -0.1892 
B( 19-Ti, 85-Ti) :  -0.1435 B( 19-Ti, 86-Ti) :  -0.1434 B( 19-Ti, 89-O ) :  -0.3152 
B( 19-Ti, 93-Ti) :  -0.2579 B( 20-Ti, 42-Ti) :  -0.2126 B( 20-Ti, 52-O ) :  -1.3898 
B( 20-Ti, 55-O ) :   0.3067 B( 20-Ti, 56-O ) :   0.3069 B( 20-Ti, 59-O ) :  -0.1315 
B( 20-Ti, 60-O ) :  -0.1315 B( 20-Ti, 64-Ti) :  -0.2620 B( 20-Ti, 67-O ) :  -0.4318 
B( 20-Ti, 68-O ) :  -0.4316 B( 20-Ti, 79-O ) :  -0.1893 B( 20-Ti, 80-O ) :  -0.1893 
B( 20-Ti, 87-Ti) :  -0.1436 B( 20-Ti, 88-Ti) :  -0.1435 B( 20-Ti, 90-O ) :  -0.3152 
B( 20-Ti, 94-Ti) :  -0.2581 B( 21-O , 41-Ti) :   0.9541 B( 21-O , 61-Ti) :   1.1223 
B( 22-O , 42-Ti) :   0.9541 B( 22-O , 62-Ti) :   1.1223 B( 23-O , 63-Ti) :   1.1069 
B( 23-O , 64-Ti) :   1.1069 B( 24-Ti, 28-O ) :   0.6595 B( 24-Ti, 33-Ti) :   0.2734 
B( 24-Ti, 37-O ) :   0.5812 B( 24-Ti, 43-O ) :   0.1298 B( 24-Ti, 51-O ) :   0.4312 
B( 24-Ti, 53-O ) :  -0.1159 B( 24-Ti, 68-O ) :  -0.1175 B( 24-Ti, 77-O ) :   0.2665 
B( 24-Ti, 81-O ) :  -0.5754 B( 24-Ti, 97-O ) :   0.2689 B( 24-Ti,110-O ) :  -0.1722 
B( 24-Ti,118-Ti) :  -0.1150 B( 25-Ti, 29-O ) :   0.6597 B( 25-Ti, 34-Ti) :   0.2735 
B( 25-Ti, 38-O ) :   0.5812 B( 25-Ti, 44-O ) :   0.1297 B( 25-Ti, 51-O ) :   0.4311 
B( 25-Ti, 54-O ) :  -0.1158 B( 25-Ti, 67-O ) :  -0.1177 B( 25-Ti, 78-O ) :   0.2661 
B( 25-Ti, 82-O ) :  -0.5756 B( 25-Ti, 98-O ) :   0.2688 B( 25-Ti,111-O ) :  -0.1723 
B( 25-Ti,119-Ti) :  -0.1150 B( 26-Ti, 30-O ) :   0.6597 B( 26-Ti, 35-Ti) :   0.2735 
B( 26-Ti, 38-O ) :   0.5814 B( 26-Ti, 45-O ) :   0.1297 B( 26-Ti, 52-O ) :   0.4314 
B( 26-Ti, 55-O ) :  -0.1157 B( 26-Ti, 66-O ) :  -0.1175 B( 26-Ti, 79-O ) :   0.2666 
B( 26-Ti, 83-O ) :  -0.5757 B( 26-Ti, 99-O ) :   0.2688 B( 26-Ti,112-O ) :  -0.1723 
B( 26-Ti,119-Ti) :  -0.1151 B( 27-Ti, 31-O ) :   0.6595 B( 27-Ti, 36-Ti) :   0.2733 
B( 27-Ti, 37-O ) :   0.5813 B( 27-Ti, 46-O ) :   0.1297 B( 27-Ti, 52-O ) :   0.4312 
B( 27-Ti, 56-O ) :  -0.1159 B( 27-Ti, 65-O ) :  -0.1175 B( 27-Ti, 80-O ) :   0.2665 
B( 27-Ti, 84-O ) :  -0.5754 B( 27-Ti,100-O ) :   0.2688 B( 27-Ti,113-O ) :  -0.1723 
B( 27-Ti,118-Ti) :  -0.1150 B( 28-O , 33-Ti) :   0.7791 B( 28-O , 85-Ti) :   1.1829 
B( 29-O , 34-Ti) :   0.7791 B( 29-O , 86-Ti) :   1.1828 B( 30-O , 35-Ti) :   0.7791 
B( 30-O , 87-Ti) :   1.1829 B( 31-O , 36-Ti) :   0.7791 B( 31-O , 88-Ti) :   1.1829 
B( 32-Ti, 41-Ti) :   0.1701 B( 32-Ti, 42-Ti) :   0.1701 B( 32-Ti, 47-O ) :   0.6053 
B( 32-Ti, 48-O ) :   0.6053 B( 32-Ti, 49-O ) :   0.6052 B( 32-Ti, 50-O ) :   0.6052 
B( 32-Ti, 61-Ti) :  -0.1306 B( 32-Ti, 62-Ti) :  -0.1305 B( 32-Ti, 73-Ti) :  -0.1361 
B( 32-Ti, 74-Ti) :  -0.1361 B( 32-Ti, 75-Ti) :  -0.1362 B( 32-Ti, 76-Ti) :  -0.1362 
B( 32-Ti,101-O ) :   0.1373 B( 32-Ti,102-O ) :   0.1373 B( 32-Ti,103-O ) :   0.1372 
B( 32-Ti,104-O ) :   0.1373 B( 32-Ti,107-O ) :  -0.1836 B( 32-Ti,108-O ) :  -0.2839 
B( 32-Ti,109-O ) :  -0.2838 B( 33-Ti, 41-Ti) :   0.3229 B( 33-Ti, 43-O ) :   0.6180 
B( 33-Ti, 57-O ) :   1.0195 B( 33-Ti, 69-O ) :   0.4017 B( 33-Ti, 81-O ) :   0.1660 
B( 33-Ti, 85-Ti) :   0.1400 B( 33-Ti, 95-O ) :   0.1015 B( 33-Ti, 97-O ) :  -0.2257 
B( 33-Ti,101-O ) :   0.1062 B( 33-Ti,110-O ) :   0.5296 B( 34-Ti, 41-Ti) :   0.3229 
B( 34-Ti, 44-O ) :   0.6180 B( 34-Ti, 58-O ) :   1.0195 B( 34-Ti, 70-O ) :   0.4018 
B( 34-Ti, 82-O ) :   0.1662 B( 34-Ti, 86-Ti) :   0.1400 B( 34-Ti, 95-O ) :   0.1016 
B( 34-Ti, 98-O ) :  -0.2260 B( 34-Ti,102-O ) :   0.1062 B( 34-Ti,111-O ) :   0.5295 
B( 35-Ti, 42-Ti) :   0.3229 B( 35-Ti, 45-O ) :   0.6179 B( 35-Ti, 59-O ) :   1.0195 
B( 35-Ti, 71-O ) :   0.4017 B( 35-Ti, 83-O ) :   0.1661 B( 35-Ti, 87-Ti) :   0.1400 
B( 35-Ti, 96-O ) :   0.1016 B( 35-Ti, 99-O ) :  -0.2255 B( 35-Ti,103-O ) :   0.1062 
B( 35-Ti,112-O ) :   0.5296 B( 36-Ti, 42-Ti) :   0.3230 B( 36-Ti, 46-O ) :   0.6180 
B( 36-Ti, 60-O ) :   1.0196 B( 36-Ti, 72-O ) :   0.4017 B( 36-Ti, 84-O ) :   0.1660 
B( 36-Ti, 88-Ti) :   0.1401 B( 36-Ti, 96-O ) :   0.1015 B( 36-Ti,100-O ) :  -0.2257 
B( 36-Ti,104-O ) :   0.1063 B( 36-Ti,113-O ) :   0.5297 B( 37-O , 91-Ti) :   1.2460 
B( 38-O , 92-Ti) :   1.2460 B( 39-O , 73-Ti) :   1.0774 B( 39-O , 76-Ti) :   1.0774 
B( 40-O , 74-Ti) :   1.0774 B( 40-O , 75-Ti) :   1.0774 B( 41-Ti, 57-O ) :   0.5396 
B( 41-Ti, 58-O ) :   0.5395 B( 41-Ti, 89-O ) :   0.5993 B( 41-Ti, 93-Ti) :   0.2395 
B( 41-Ti, 95-O ) :  -0.1608 B( 41-Ti,101-O ) :   0.2708 B( 41-Ti,102-O ) :   0.2708 
B( 42-Ti, 59-O ) :   0.5395 B( 42-Ti, 60-O ) :   0.5396 B( 42-Ti, 90-O ) :   0.5994 
B( 42-Ti, 94-Ti) :   0.2396 B( 42-Ti, 96-O ) :  -0.1610 B( 42-Ti,103-O ) :   0.2707 
B( 42-Ti,104-O ) :   0.2707 B( 43-O ,114-Ti) :   1.4858 B( 44-O ,115-Ti) :   1.4858 
B( 45-O ,116-Ti) :   1.4858 B( 46-O ,117-Ti) :   1.4858 B( 47-O , 61-Ti) :   0.9435 
B( 47-O , 73-Ti) :   1.0453 B( 48-O , 61-Ti) :   0.9435 B( 48-O , 74-Ti) :   1.0453 
B( 49-O , 62-Ti) :   0.9435 B( 49-O , 75-Ti) :   1.0453 B( 50-O , 62-Ti) :   0.9435 
B( 50-O , 76-Ti) :   1.0453 B( 51-O , 63-Ti) :   1.1141 B( 51-O , 93-Ti) :  -0.1147 
B( 52-O , 64-Ti) :   1.1142 B( 52-O , 94-Ti) :  -0.1146 B( 53-O , 85-Ti) :   1.0432 
B( 53-O , 93-Ti) :   1.2080 B( 54-O , 86-Ti) :   1.0432 B( 54-O , 93-Ti) :   1.2080 
B( 55-O , 87-Ti) :   1.0432 B( 55-O , 94-Ti) :   1.2080 B( 56-O , 88-Ti) :   1.0432 
B( 56-O , 94-Ti) :   1.2080 B( 57-O , 97-O ) :  -0.1608 B( 58-O , 98-O ) :  -0.1608 
B( 59-O , 99-O ) :  -0.1608 B( 60-O ,100-O ) :  -0.1608 B( 61-Ti, 69-O ) :   0.2131 
B( 61-Ti, 70-O ) :   0.2131 B( 61-Ti, 95-O ) :   0.4048 B( 61-Ti,101-O ) :  -0.1683 
B( 61-Ti,102-O ) :  -0.1683 B( 62-Ti, 71-O ) :   0.2131 B( 62-Ti, 72-O ) :   0.2131 
B( 62-Ti, 96-O ) :   0.4049 B( 62-Ti,103-O ) :  -0.1683 B( 62-Ti,104-O ) :  -0.1683 
B( 63-Ti, 77-O ) :   0.4024 B( 63-Ti, 78-O ) :   0.4024 B( 64-Ti, 79-O ) :   0.4025 
B( 64-Ti, 80-O ) :   0.4025 B( 65-O , 85-Ti) :   1.2095 B( 65-O , 91-Ti) :   0.1937 
B( 66-O , 86-Ti) :   1.2093 B( 66-O , 92-Ti) :   0.1938 B( 67-O , 87-Ti) :   1.2095 
B( 67-O , 92-Ti) :   0.1937 B( 68-O , 88-Ti) :   1.2094 B( 68-O , 91-Ti) :   0.1937 
B( 69-O , 73-Ti) :   0.8557 B( 70-O , 74-Ti) :   0.8557 B( 71-O , 75-Ti) :   0.8557 
B( 72-O , 76-Ti) :   0.8557 B( 73-Ti, 76-Ti) :   0.1128 B( 73-Ti,107-O ) :   0.1631 
B( 73-Ti,108-O ) :   0.8103 B( 74-Ti, 75-Ti) :   0.1128 B( 74-Ti,107-O ) :   0.1631 
B( 74-Ti,109-O ) :   0.8102 B( 75-Ti,107-O ) :   0.1631 B( 75-Ti,109-O ) :   0.8103 
B( 76-Ti,107-O ) :   0.1631 B( 76-Ti,108-O ) :   0.8103 B( 77-O , 91-Ti) :   0.9552 
B( 78-O , 92-Ti) :   0.9553 B( 79-O , 92-Ti) :   0.9553 B( 80-O , 91-Ti) :   0.9553 
B( 81-O , 85-Ti) :  -0.1030 B( 81-O ,118-Ti) :   1.3468 B( 82-O , 86-Ti) :  -0.1031 
B( 82-O ,119-Ti) :   1.3469 B( 83-O , 87-Ti) :  -0.1032 B( 83-O ,119-Ti) :   1.3468 
B( 84-O , 88-Ti) :  -0.1031 B( 84-O ,118-Ti) :   1.3468 B( 85-Ti, 97-O ) :   0.1469 
B( 85-Ti,110-O ) :   0.2230 B( 86-Ti, 98-O ) :   0.1469 B( 86-Ti,111-O ) :   0.2231 
B( 87-Ti, 99-O ) :   0.1468 B( 87-Ti,112-O ) :   0.2230 B( 88-Ti,100-O ) :   0.1469 
B( 88-Ti,113-O ) :   0.2230 B( 89-O , 93-Ti) :   1.0001 B( 89-O , 95-O ) :  -0.1407 
B( 90-O , 94-Ti) :   1.0001 B( 90-O , 96-O ) :  -0.1407 B( 93-Ti,110-O ) :   0.1131 
B( 93-Ti,111-O ) :   0.1131 B( 94-Ti,112-O ) :   0.1131 B( 94-Ti,113-O ) :   0.1131 
B( 97-O ,114-Ti) :   0.2871 B( 98-O ,115-Ti) :   0.2871 B( 99-O ,116-Ti) :   0.2871 
B(100-O ,117-Ti) :   0.2871 B(105-O ,114-Ti) :   1.0341 B(105-O ,117-Ti) :   1.0341 
B(105-O ,118-Ti) :   0.7782 B(106-O ,115-Ti) :   1.0341 B(106-O ,116-Ti) :   1.0341 
B(106-O ,119-Ti) :   0.7782 

-------
TIMINGS
-------

Total SCF time: 0 days 1 hours 33 min 47 sec 

Total time                  ....    5627.920 sec
Sum of individual times     ....    5483.713 sec  ( 97.4%)

Fock matrix formation       ....    4251.443 sec  ( 75.5%)
  Split-RI-J                ....     410.993 sec  (  9.7% of F)
  XC integration            ....    1198.692 sec  ( 28.2% of F)
    Basis function eval.    ....     205.871 sec  ( 17.2% of XC)
    Density eval.           ....     689.932 sec  ( 57.6% of XC)
    XC-Functional eval.     ....       6.742 sec  (  0.6% of XC)
    XC-Potential eval.      ....     216.625 sec  ( 18.1% of XC)
Diagonalization             ....     481.876 sec  (  8.6%)
Density matrix formation    ....      66.638 sec  (  1.2%)
Population analysis         ....      12.164 sec  (  0.2%)
Initial guess               ....      15.294 sec  (  0.3%)
Orbital Transformation      ....      58.163 sec  (  1.0%)
Orbital Orthonormalization  ....       0.000 sec  (  0.0%)
DIIS solution               ....     582.552 sec  ( 10.4%)
Grid generation             ....      15.116 sec  (  0.3%)

Maximum memory used throughout the entire SCF-calculation: 2715.7 MB

-------------------------   --------------------
FINAL SINGLE POINT ENERGY    -65486.367935280490
-------------------------   --------------------


                            ***************************************
                            *     ORCA property calculations      *
                            ***************************************

                                    ---------------------
                                    Active property flags
                                    ---------------------
   (+) Dipole Moment


------------------------------------------------------------------------------
                       ORCA ELECTRIC PROPERTIES CALCULATION
------------------------------------------------------------------------------

Dipole Moment Calculation                       ... on
Quadrupole Moment Calculation                   ... off
Polarizability Calculation                      ... off
GBWName                                         ... orca.gbw
Electron density                                ... orca.scfp
The origin for moment calculation is the CENTER OF MASS  = ( 0.000000,  0.000000 -0.190489)

-------------
DIPOLE MOMENT
-------------
                                X             Y             Z
Electronic contribution:     -0.00000      -0.00000     111.86179
Nuclear contribution   :      0.00000       0.00000    -975.23990
                        -----------------------------------------
Total Dipole Moment    :     -0.00000      -0.00000    -863.37811
                        -----------------------------------------
Magnitude (a.u.)       :    863.37811
Magnitude (Debye)      :   2194.53276



--------------------
Rotational spectrum 
--------------------
 
Rotational constants in cm-1:     0.000314     0.000281     0.000280 
Rotational constants in MHz :     9.418928     8.428223     8.386927 

 Dipole components along the rotational axes: 
x,y,z [a.u.] :    -0.000003    -0.000001  -863.378114 
x,y,z [Debye]:    -0.000007    -0.000002 -2194.532763 

 

Timings for individual modules:

Sum of individual times         ...    11432.774 sec (= 190.546 min)
GTO integral calculation        ...     5795.737 sec (=  96.596 min)  50.7 %
SCF iterations                  ...     5637.037 sec (=  93.951 min)  49.3 %
                             ****ORCA TERMINATED NORMALLY****
TOTAL RUN TIME: 0 days 3 hours 10 minutes 48 seconds 622 msec
