 **********************************************************************
                          MRCC program system
 **********************************************************************
 
                              Written by
 Mihaly Kallay, Peter R. Nagy, David Mester, Zoltan Rolik, Gyula Samu,
   Jozsef Csontos, Jozsef Csoka, P. Bernat Szabo, Laszlo Gyevi-Nagy,
    Bence Hegely, Istvan Ladjanszki, Lorant Szegedy, Bence Ladoczki,
       Klara Petrov, Mate Farkas, Pal D. Mezei, and Adam Ganyecz
 
        Department of Physical Chemistry and Materials Science
            Budapest University of Technology and Economics
                  Budapest P.O.Box 91, H-1521 Hungary
 
                              www.mrcc.hu
 
                    Release date: February 22, 2020

 ************************ 2022-02-05 09:17:54 *************************
 Executing minp...

 Reading input from MINP...
 
 Input file:
 
calc=LNO-CCSD(T)
scftype=rhf
verbosity=3
mem=490GB
symm=off
unit=angs
scfiguess=small
scfmaxit=1000
scfalg=locfit1

lcorthr=tight
ccmaxit=400
usedisk=0
ccsdalg=dfdirect
ccsdthreads=4
ccsdmkl=thr
ptthreads=4

charge=-12
core=27

basis=special
def2-TZVPP
def2-TZVPP
def2-TZVPP
def2-TZVPP
def2-TZVPP
def2-TZVPP
def2-TZVPP
def2-TZVPP
def2-TZVPP
def2-TZVPP
def2-TZVPP
def2-TZVPP
nothing
nothing
nothing
nothing
nothing
nothing
nothing
nothing
nothing
nothing
nothing
nothing
nothing
nothing
nothing
nothing
nothing
nothing
nothing
nothing
nothing
nothing
nothing
nothing
nothing
nothing
nothing
nothing
nothing
nothing
nothing
nothing
nothing
nothing
nothing
nothing
nothing
nothing
nothing
nothing
nothing
nothing
nothing
nothing
nothing
nothing
nothing
nothing
nothing
nothing
nothing
nothing
nothing
nothing
nothing
nothing
nothing
nothing
nothing
nothing
nothing
nothing
nothing
nothing
nothing
nothing
nothing

basis_sm=special
STO-3G
STO-3G
STO-3G
STO-3G
STO-3G
STO-3G
STO-3G
STO-3G
STO-3G
STO-3G
STO-3G
STO-3G
nothing
nothing
nothing
nothing
nothing
nothing
nothing
nothing
nothing
nothing
nothing
nothing
nothing
nothing
nothing
nothing
nothing
nothing
nothing
nothing
nothing
nothing
nothing
nothing
nothing
nothing
nothing
nothing
nothing
nothing
nothing
nothing
nothing
nothing
nothing
nothing
nothing
nothing
nothing
nothing
nothing
nothing
nothing
nothing
nothing
nothing
nothing
nothing
nothing
nothing
nothing
nothing
nothing
nothing
nothing
nothing
nothing
nothing
nothing
nothing
nothing
nothing
nothing
nothing
nothing
nothing
nothing

dfbasis_scf=special
def2-QZVPP-RI-JK
def2-QZVPP-RI-JK
def2-QZVPP-RI-JK
def2-QZVPP-RI-JK
def2-QZVPP-RI-JK
def2-QZVPP-RI-JK
def2-QZVPP-RI-JK
def2-QZVPP-RI-JK
def2-QZVPP-RI-JK
def2-QZVPP-RI-JK
def2-QZVPP-RI-JK
def2-QZVPP-RI-JK
nothing
nothing
nothing
nothing
nothing
nothing
nothing
nothing
nothing
nothing
nothing
nothing
nothing
nothing
nothing
nothing
nothing
nothing
nothing
nothing
nothing
nothing
nothing
nothing
nothing
nothing
nothing
nothing
nothing
nothing
nothing
nothing
nothing
nothing
nothing
nothing
nothing
nothing
nothing
nothing
nothing
nothing
nothing
nothing
nothing
nothing
nothing
nothing
nothing
nothing
nothing
nothing
nothing
nothing
nothing
nothing
nothing
nothing
nothing
nothing
nothing
nothing
nothing
nothing
nothing
nothing
nothing

dfbasis_cor=special
def2-TZVPP-RI
def2-TZVPP-RI
def2-TZVPP-RI
def2-TZVPP-RI
def2-TZVPP-RI
def2-TZVPP-RI
def2-TZVPP-RI
def2-TZVPP-RI
def2-TZVPP-RI
def2-TZVPP-RI
def2-TZVPP-RI
def2-TZVPP-RI
nothing
nothing
nothing
nothing
nothing
nothing
nothing
nothing
nothing
nothing
nothing
nothing
nothing
nothing
nothing
nothing
nothing
nothing
nothing
nothing
nothing
nothing
nothing
nothing
nothing
nothing
nothing
nothing
nothing
nothing
nothing
nothing
nothing
nothing
nothing
nothing
nothing
nothing
nothing
nothing
nothing
nothing
nothing
nothing
nothing
nothing
nothing
nothing
nothing
nothing
nothing
nothing
nothing
nothing
nothing
nothing
nothing
nothing
nothing
nothing
nothing
nothing
nothing
nothing
nothing
nothing
nothing

ecp=special
none
none
none
none
none
none
none
none
none
none
none
none
ECP-22
ECP-22
ECP-22
ECP-22
ECP-22
ECP-22
ECP-22
ECP-22
ECP-22
ECP-22
ECP-22
ECP-22
ECP-22
ECP-22
ECP-22
ECP-22
ECP-22
ECP-22
ECP-22
ECP-22
ECP-22
ECP-22
ECP-22
ECP-22
ECP-22
ECP-22
ECP-22
ECP-22
ECP-22
ECP-22
ECP-22
ECP-22
ECP-22
ECP-22
ECP-22
ECP-22
ECP-22
ECP-22
ECP-22
ECP-22
ECP-22
ECP-22
ECP-22
ECP-22
ECP-22
ECP-22
ECP-22
ECP-22
ECP-22
ECP-22
ECP-22
ECP-22
ECP-22
ECP-22
ECP-22
ECP-22
ECP-22
ECP-22
ECP-22
ECP-22
ECP-22
ECP-22
ECP-22
ECP-22
ECP-22
ECP-22
ECP-22

unit=angs
geom=xyz
79
Ti2O10ECP67
O     0.00000000000    0.00000000000    0.00000000000
Ti    0.00000536997    1.48055149700   -1.06892606631
Ti    0.00000552101   -1.48055312386   -1.06892138720
O     0.00000442396   -0.00000111986   -2.54840301833
O    -2.03525914147    1.48054518365   -1.11149385695
O     2.03526534753    1.48054527935   -1.11149163807
O     2.03526471018   -1.48054700097   -1.11149295951
O    -2.03525907462   -1.48054722666   -1.11149503385
O    -0.00000037752    2.96109155033   -0.00000271770
O    -0.00000037752   -2.96109552160   -0.00000271770
O     0.00000449994    2.96109199200   -2.54840438198
O     0.00000449994   -2.96109507993   -2.54840438198
Ti    3.25402319191   -0.00000112036   -1.42716202606
Ti   -3.25401610555   -0.00000112036   -1.42716202606
Ti   -0.00005220374   -0.00000071014   -4.41288396045
Ti    0.00000552101    4.44163394806   -1.06892138720
Ti    0.00000536997   -4.44163557493   -1.06892606631
Ti   -3.25401668289    2.96109302555   -1.42716235830
Ti    3.25402261457    2.96109302555   -1.42716235830
Ti    3.25402261457   -2.96109404638   -1.42716235830
Ti   -3.25401668289   -2.96109404638   -1.42716235830
Ti   -0.00005206359    2.96109301637   -4.41288206312
Ti   -0.00005206359   -2.96109405556   -4.41288206312
Ti    3.25395215162    1.48054533538   -4.59991327640
Ti    3.25395195581   -1.48054722422   -4.59991284715
Ti   -3.25408714585    1.48054533538   -4.59991327640
Ti   -3.25408734165   -1.48054722422   -4.59991284715
Ti   -6.50803392749    1.48055149700   -1.06892606631
Ti    6.50804466744    1.48055149700   -1.06892606631
Ti    6.50804481848   -1.48055312386   -1.06892138720
Ti   -6.50803377645   -1.48055312386   -1.06892138720
Ti   -3.25401610555    5.92218595157   -1.42716202606
Ti    3.25402319191    5.92218595157   -1.42716202606
Ti    3.25402319191   -5.92218819228   -1.42716202606
Ti   -3.25401610555   -5.92218819228   -1.42716202606
Ti    3.25395195581    4.44163984770   -4.59991284715
Ti    3.25395215162   -4.44164173655   -4.59991327640
Ti   -3.25408734165    4.44163984770   -4.59991284715
Ti   -3.25408714585   -4.44164173655   -4.59991327640
Ti   -0.00005220374    5.92218636178   -4.41288396045
Ti   -0.00005220374   -5.92218778207   -4.41288396045
Ti    0.00000536997    7.40273856892   -1.06892606631
Ti    0.00000552101   -7.40274019579   -1.06892138720
Ti    6.50798709372   -0.00000071014   -4.41288396045
Ti   -6.50809150121   -0.00000071014   -4.41288396045
Ti   -0.00000306899    1.48054576566   -7.78540932970
Ti   -0.00000306899   -1.48054777030   -7.78540932970
Ti   -6.50803377645    4.44163394806   -1.06892138720
Ti    6.50804481848    4.44163394806   -1.06892138720
Ti    6.50804466744   -4.44163557493   -1.06892606631
Ti   -6.50803392749   -4.44163557493   -1.06892606631
Ti    6.50798723387    2.96109301637   -4.41288206312
Ti    6.50798723387   -2.96109405556   -4.41288206312
Ti   -6.50809136106    2.96109301637   -4.41288206312
Ti   -6.50809136106   -2.96109405556   -4.41288206312
Ti    3.25401657974   -0.00000100232   -7.78540932970
Ti   -3.25402271772   -0.00000100232   -7.78540932970
Ti   -3.25402271772    2.96109253364   -7.78540932970
Ti    3.25401657974    2.96109253364   -7.78540932970
Ti    3.25401657974   -2.96109453828   -7.78540932970
Ti   -3.25402271772   -2.96109453828   -7.78540932970
Ti   -0.00000306899    4.44163930162   -7.78540932970
Ti   -0.00000306899   -4.44164130627   -7.78540932970
Ti   -3.25408714585    7.40273240730   -4.59991327640
Ti    3.25395215162    7.40273240730   -4.59991327640
Ti    3.25395195581   -7.40273429615   -4.59991284715
Ti   -3.25408734165   -7.40273429615   -4.59991284715
Ti   -3.25401668289    8.88328009748   -1.42716235830
Ti    3.25402261457    8.88328009748   -1.42716235830
Ti    3.25402261457   -8.88328111830   -1.42716235830
Ti   -3.25401668289   -8.88328111830   -1.42716235830
Ti   -0.00005206359    8.88328008829   -4.41288206312
Ti   -0.00005206359   -8.88328112748   -4.41288206312
Ti   -3.25402271772    5.92218606960   -7.78540932970
Ti    3.25401657974    5.92218606960   -7.78540932970
Ti    3.25401657974   -5.92218807425   -7.78540932970
Ti   -3.25402271772   -5.92218807425   -7.78540932970
Ti   -0.00000306899    7.40273283758   -7.78540932970
Ti   -0.00000306899   -7.40273484223   -7.78540932970

ghost=serialno
1

qmmm=Amber
pointcharges
12981
      3.25402319191   -0.00000112036   -1.42716202606    4.00000000000
     -3.25401610555   -0.00000112036   -1.42716202606    4.00000000000
     -0.00005220374   -0.00000071014   -4.41288396045    4.00000000000
      0.00000552101    4.44163394806   -1.06892138720    4.00000000000
      0.00000536997   -4.44163557493   -1.06892606631    4.00000000000
      3.25402603430   -0.00000063665   -3.23990501486   -2.00000000000
     -3.25401326317   -0.00000063665   -3.23990501486   -2.00000000000
     -3.25401668289    2.96109302555   -1.42716235830    4.00000000000
      3.25402261457    2.96109302555   -1.42716235830    4.00000000000
      3.25402261457   -2.96109404638   -1.42716235830    4.00000000000
     -3.25401668289   -2.96109404638   -1.42716235830    4.00000000000
     -4.47277394994    1.48054527935   -1.11149163807   -2.00000000000
      4.47278015600    1.48054518365   -1.11149385695   -2.00000000000
      4.47278022285   -1.48054722666   -1.11149503385   -2.00000000000
     -4.47277458729   -1.48054700097   -1.11149295951   -2.00000000000
     -1.30106804451    1.48054600613   -4.51644966155   -2.00000000000
      1.30109103436    1.48054591013   -4.51645509582   -2.00000000000
      1.30109095673   -1.48054821213   -4.51645492343   -2.00000000000
     -1.30106798933   -1.48054805070   -4.51644946585   -2.00000000000
     -2.03525907462    4.44163984526   -1.11149503385   -2.00000000000
      2.03526471018    4.44164007096   -1.11149295951   -2.00000000000
      2.03526534753   -4.44164179257   -1.11149163807   -2.00000000000
     -2.03525914147   -4.44164188827   -1.11149385695   -2.00000000000
     -0.00005206359    2.96109301637   -4.41288206312    4.00000000000
     -0.00005206359   -2.96109405556   -4.41288206312    4.00000000000
     -3.25401306857    2.96109209923   -3.23990596489   -2.00000000000
      3.25402622890    2.96109209923   -3.23990596489   -2.00000000000
      3.25402622890   -2.96109497270   -3.23990596489   -2.00000000000
     -3.25401306857   -2.96109497270   -3.23990596489   -2.00000000000
      3.25395215162    1.48054533538   -4.59991327640    4.00000000000
      3.25395195581   -1.48054722422   -4.59991284715    4.00000000000
     -3.25408714585    1.48054533538   -4.59991327640    4.00000000000
     -3.25408734165   -1.48054722422   -4.59991284715    4.00000000000
      0.00000000000    5.92218707193    0.00000000000   -2.00000000000
      0.00000000000   -5.92218707193    0.00000000000   -2.00000000000
     -4.47277458729    4.44164007096   -1.11149295951   -2.00000000000
      4.47278022285    4.44163984526   -1.11149503385   -2.00000000000
      4.47278015600   -4.44164188827   -1.11149385695   -2.00000000000
     -4.47277394994   -4.44164179257   -1.11149163807   -2.00000000000
      0.00000442396    5.92218595207   -2.54840301833   -2.00000000000
      0.00000442396   -5.92218819178   -2.54840301833   -2.00000000000
     -1.30106798933    4.44163902122   -4.51644946585   -2.00000000000
      1.30109095673    4.44163885980   -4.51645492343   -2.00000000000
      1.30109103436   -4.44164116180   -4.51645509582   -2.00000000000
     -1.30106804451   -4.44164106579   -4.51644966155   -2.00000000000
     -6.50803929747    0.00000000000    0.00000000000   -2.00000000000
      6.50803929747    0.00000000000    0.00000000000   -2.00000000000
     -0.00000306899   -0.00000100232   -6.51331789952   -2.00000000000
      3.25402501297   -0.00000107099   -5.78839374873   -2.00000000000
     -3.25401428450   -0.00000107099   -5.78839374873   -2.00000000000
     -6.50803392749    1.48055149700   -1.06892606631    4.00000000000
      6.50804466744    1.48055149700   -1.06892606631    4.00000000000
      6.50804481848   -1.48055312386   -1.06892138720    4.00000000000
     -6.50803377645   -1.48055312386   -1.06892138720    4.00000000000
     -3.25401610555    5.92218595157   -1.42716202606    4.00000000000
      3.25402319191    5.92218595157   -1.42716202606    4.00000000000
      3.25402319191   -5.92218819228   -1.42716202606    4.00000000000
     -3.25401610555   -5.92218819228   -1.42716202606    4.00000000000
      6.50804372142   -0.00000111986   -2.54840301833   -2.00000000000
     -6.50803487351   -0.00000111986   -2.54840301833   -2.00000000000
     -5.20694826311    1.48054591013   -4.51645509582   -2.00000000000
      5.20697125296    1.48054600613   -4.51644966155   -2.00000000000
      5.20697130813   -1.48054805070   -4.51644946585   -2.00000000000
     -5.20694834074   -1.48054821213   -4.51645492343   -2.00000000000
     -6.50803967498    2.96109155033   -0.00000271770   -2.00000000000
      6.50803891995    2.96109155033   -0.00000271770   -2.00000000000
      6.50803891995   -2.96109552160   -0.00000271770   -2.00000000000
     -6.50803967498   -2.96109552160   -0.00000271770   -2.00000000000
     -0.00000306899    2.96109253364   -6.51331789952   -2.00000000000
     -0.00000306899   -2.96109453828   -6.51331789952   -2.00000000000
      3.25395195581    4.44163984770   -4.59991284715    4.00000000000
      3.25395215162   -4.44164173655   -4.59991327640    4.00000000000
     -3.25408734165    4.44163984770   -4.59991284715    4.00000000000
     -3.25408714585   -4.44164173655   -4.59991327640    4.00000000000
     -3.25401413420    2.96109275570   -5.78839415273   -2.00000000000
      3.25402516327    2.96109275570   -5.78839415273   -2.00000000000
      3.25402516327   -2.96109431623   -5.78839415273   -2.00000000000
     -3.25401413420   -2.96109431623   -5.78839415273   -2.00000000000
     -0.00005220374    5.92218636178   -4.41288396045    4.00000000000
     -0.00005220374   -5.92218778207   -4.41288396045    4.00000000000
      0.00000536997    7.40273856892   -1.06892606631    4.00000000000
      0.00000552101   -7.40274019579   -1.06892138720    4.00000000000
     -3.25401326317    5.92218643528   -3.23990501486   -2.00000000000
      3.25402603430    5.92218643528   -3.23990501486   -2.00000000000
      3.25402603430   -5.92218770857   -3.23990501486   -2.00000000000
     -3.25401326317   -5.92218770857   -3.23990501486   -2.00000000000
     -6.50803479753    2.96109199200   -2.54840438198   -2.00000000000
      6.50804379741    2.96109199200   -2.54840438198   -2.00000000000
      6.50804379741   -2.96109507993   -2.54840438198   -2.00000000000
     -6.50803479753   -2.96109507993   -2.54840438198   -2.00000000000
     -2.03525914147    7.40273225558   -1.11149385695   -2.00000000000
      2.03526534753    7.40273235128   -1.11149163807   -2.00000000000
      2.03526471018   -7.40273407290   -1.11149295951   -2.00000000000
     -2.03525907462   -7.40273429859   -1.11149503385   -2.00000000000
      6.50798709372   -0.00000071014   -4.41288396045    4.00000000000
     -6.50809150121   -0.00000071014   -4.41288396045    4.00000000000
     -0.00000306899    1.48054576566   -7.78540932970    4.00000000000
     -0.00000306899   -1.48054777030   -7.78540932970    4.00000000000
     -6.50803377645    4.44163394806   -1.06892138720    4.00000000000
      6.50804481848    4.44163394806   -1.06892138720    4.00000000000
      6.50804466744   -4.44163557493   -1.06892606631    4.00000000000
     -6.50803392749   -4.44163557493   -1.06892606631    4.00000000000
     -1.98193128755    1.48054576566   -7.78540932970   -2.00000000000
      1.98192514957    1.48054576566   -7.78540932970   -2.00000000000
      1.98192514957   -1.48054777030   -7.78540932970   -2.00000000000
     -1.98193128755   -1.48054777030   -7.78540932970   -2.00000000000
     -5.20694834074    4.44163885980   -4.51645492343   -2.00000000000
      5.20697130813    4.44163902122   -4.51644946585   -2.00000000000
      5.20697125296   -4.44164106579   -4.51644966155   -2.00000000000
     -5.20694826311   -4.44164116180   -4.51645509582   -2.00000000000
      6.50798723387    2.96109301637   -4.41288206312    4.00000000000
      6.50798723387   -2.96109405556   -4.41288206312    4.00000000000
     -6.50809136106    2.96109301637   -4.41288206312    4.00000000000
     -6.50809136106   -2.96109405556   -4.41288206312    4.00000000000
      3.25401657974   -0.00000100232   -7.78540932970    4.00000000000
     -3.25402271772   -0.00000100232   -7.78540932970    4.00000000000
     -4.47277394994    7.40273235128   -1.11149163807   -2.00000000000
      4.47278015600    7.40273225558   -1.11149385695   -2.00000000000
      4.47278022285   -7.40273429859   -1.11149503385   -2.00000000000
     -4.47277458729   -7.40273407290   -1.11149295951   -2.00000000000
     -8.54329843894    1.48054518365   -1.11149385695   -2.00000000000
      8.54330464500    1.48054527935   -1.11149163807   -2.00000000000
      8.54330400764   -1.48054700097   -1.11149295951   -2.00000000000
     -8.54329837208   -1.48054722666   -1.11149503385   -2.00000000000
     -1.30106804451    7.40273307806   -4.51644966155   -2.00000000000
      1.30109103436    7.40273298205   -4.51645509582   -2.00000000000
      1.30109095673   -7.40273528405   -4.51645492343   -2.00000000000
     -1.30106798933   -7.40273512263   -4.51644946585   -2.00000000000
     -6.50803929747    5.92218707193    0.00000000000   -2.00000000000
      6.50803929747    5.92218707193    0.00000000000   -2.00000000000
      6.50803929747   -5.92218707193    0.00000000000   -2.00000000000
     -6.50803929747   -5.92218707193    0.00000000000   -2.00000000000
     -0.00000306899    5.92218606960   -6.51331789952   -2.00000000000
     -0.00000306899   -5.92218807425   -6.51331789952   -2.00000000000
     -0.00000037752    8.88327862225   -0.00000271770   -2.00000000000
     -0.00000037752   -8.88328259352   -0.00000271770   -2.00000000000
     -3.25401428450    5.92218600093   -5.78839374873   -2.00000000000
      3.25402501297    5.92218600093   -5.78839374873   -2.00000000000
      3.25402501297   -5.92218814292   -5.78839374873   -2.00000000000
     -3.25401428450   -5.92218814292   -5.78839374873   -2.00000000000
     -3.25402271772    2.96109253364   -7.78540932970    4.00000000000
      3.25401657974    2.96109253364   -7.78540932970    4.00000000000
      3.25401657974   -2.96109453828   -7.78540932970    4.00000000000
     -3.25402271772   -2.96109453828   -7.78540932970    4.00000000000
     -0.00000306899    4.44163930162   -7.78540932970    4.00000000000
     -0.00000306899   -4.44164130627   -7.78540932970    4.00000000000
     -0.00000306899   -0.00000100232   -9.05750075987   -2.00000000000
     -7.80910734197    1.48054600613   -4.51644966155   -2.00000000000
      7.80913033182    1.48054591013   -4.51645509582   -2.00000000000
      7.80913025419   -1.48054821213   -4.51645492343   -2.00000000000
     -7.80910728680   -1.48054805070   -4.51644946585   -2.00000000000
     -6.50803487351    5.92218595207   -2.54840301833   -2.00000000000
      6.50804372142    5.92218595207   -2.54840301833   -2.00000000000
      6.50804372142   -5.92218819178   -2.54840301833   -2.00000000000
     -6.50803487351   -5.92218819178   -2.54840301833   -2.00000000000
     -1.98193128755    4.44163930162   -7.78540932970   -2.00000000000
      1.98192514957    4.44163930162   -7.78540932970   -2.00000000000
      1.98192514957   -4.44164130627   -7.78540932970   -2.00000000000
     -1.98193128755   -4.44164130627   -7.78540932970   -2.00000000000
      0.00000449994    8.88327906392   -2.54840438198   -2.00000000000
      0.00000449994   -8.88328215185   -2.54840438198   -2.00000000000
     -3.25408714585    7.40273240730   -4.59991327640    4.00000000000
      3.25395215162    7.40273240730   -4.59991327640    4.00000000000
      3.25395195581   -7.40273429615   -4.59991284715    4.00000000000
     -3.25408734165   -7.40273429615   -4.59991284715    4.00000000000
     -0.00000306899    2.96109253364   -9.05750075987   -2.00000000000
     -0.00000306899   -2.96109453828   -9.05750075987   -2.00000000000
     -3.25401668289    8.88328009748   -1.42716235830    4.00000000000
      3.25402261457    8.88328009748   -1.42716235830    4.00000000000
      3.25402261457   -8.88328111830   -1.42716235830    4.00000000000
     -3.25401668289   -8.88328111830   -1.42716235830    4.00000000000
     -0.00005206359    8.88328008829   -4.41288206312    4.00000000000
     -0.00005206359   -8.88328112748   -4.41288206312    4.00000000000
     -3.25401306857    8.88327917115   -3.23990596489   -2.00000000000
      3.25402622890    8.88327917115   -3.23990596489   -2.00000000000
      3.25402622890   -8.88328204462   -3.23990596489   -2.00000000000
     -3.25401306857   -8.88328204462   -3.23990596489   -2.00000000000
     -3.25402271772    5.92218606960   -7.78540932970    4.00000000000
      3.25401657974    5.92218606960   -7.78540932970    4.00000000000
      3.25401657974   -5.92218807425   -7.78540932970    4.00000000000
     -3.25402271772   -5.92218807425   -7.78540932970    4.00000000000
     -0.00000306899    7.40273283758   -7.78540932970    4.00000000000
     -0.00000306899   -7.40273484223   -7.78540932970    4.00000000000
     -4.52611414790    1.48054576566   -7.78540932970   -2.00000000000
      4.52610800992    1.48054576566   -7.78540932970   -2.00000000000
      4.52610800992   -1.48054777030   -7.78540932970   -2.00000000000
     -4.52611414790   -1.48054777030   -7.78540932970   -2.00000000000
      6.50803622848   -0.00000100232   -6.51331789952   -2.00000000000
     -6.50804236645   -0.00000100232   -6.51331789952   -2.00000000000
     -6.50804236645    2.96109253364   -6.51331789952   -2.00000000000
      6.50803622848    2.96109253364   -6.51331789952   -2.00000000000
      6.50803622848   -2.96109453828   -6.51331789952   -2.00000000000
     -6.50804236645   -2.96109453828   -6.51331789952   -2.00000000000
     -8.54329837208    4.44163984526   -1.11149503385   -2.00000000000
      8.54330400764    4.44164007096   -1.11149295951   -2.00000000000
      8.54330464500   -4.44164179257   -1.11149163807   -2.00000000000
     -8.54329843894   -4.44164188827   -1.11149385695   -2.00000000000
      6.50798709372    5.92218636178   -4.41288396045    4.00000000000
      6.50798709372   -5.92218778207   -4.41288396045    4.00000000000
     -6.50809150121    5.92218636178   -4.41288396045    4.00000000000
     -6.50809150121   -5.92218778207   -4.41288396045    4.00000000000
      9.76206248938   -0.00000112036   -1.42716202606    4.00000000000
     -9.76205540302   -0.00000112036   -1.42716202606    4.00000000000
     -6.50803392749    7.40273856892   -1.06892606631    4.00000000000
      6.50804466744    7.40273856892   -1.06892606631    4.00000000000
      6.50804481848   -7.40274019579   -1.06892138720    4.00000000000
     -6.50803377645   -7.40274019579   -1.06892138720    4.00000000000
     -4.52611414790    4.44163930162   -7.78540932970   -2.00000000000
      4.52610800992    4.44163930162   -7.78540932970   -2.00000000000
      4.52610800992   -4.44164130627   -7.78540932970   -2.00000000000
     -4.52611414790   -4.44164130627   -7.78540932970   -2.00000000000
     -7.80910728680    4.44163902122   -4.51644946585   -2.00000000000
      7.80913025419    4.44163885980   -4.51645492343   -2.00000000000
      7.80913033182   -4.44164116180   -4.51645509582   -2.00000000000
     -7.80910734197   -4.44164106579   -4.51644966155   -2.00000000000
     -5.20694826311    7.40273298205   -4.51645509582   -2.00000000000
      5.20697125296    7.40273307806   -4.51644966155   -2.00000000000
      5.20697130813   -7.40273512263   -4.51644946585   -2.00000000000
     -5.20694834074   -7.40273528405   -4.51645492343   -2.00000000000
     -6.50804236645    1.48054576566   -7.78540932970    4.00000000000
      6.50803622848    1.48054576566   -7.78540932970    4.00000000000
      6.50803622848   -1.48054777030   -7.78540932970    4.00000000000
     -6.50804236645   -1.48054777030   -7.78540932970    4.00000000000
      9.76206533176   -0.00000063665   -3.23990501486   -2.00000000000
     -9.76205256063   -0.00000063665   -3.23990501486   -2.00000000000
      3.25401657974   -0.00000100232   -9.76733754826   -2.00000000000
     -3.25402271772   -0.00000100232   -9.76733754826   -2.00000000000
     -9.76205598036    2.96109302555   -1.42716235830    4.00000000000
      9.76206191204    2.96109302555   -1.42716235830    4.00000000000
      9.76206191204   -2.96109404638   -1.42716235830    4.00000000000
     -9.76205598036   -2.96109404638   -1.42716235830    4.00000000000
      0.00000552101   10.36382101999   -1.06892138720    4.00000000000
      0.00000536997  -10.36382264685   -1.06892606631    4.00000000000
     -2.03525907462   10.36382691719   -1.11149503385   -2.00000000000
      2.03526471018   10.36382714288   -1.11149295951   -2.00000000000
      2.03526534753  -10.36382886450   -1.11149163807   -2.00000000000
     -2.03525914147  -10.36382896020   -1.11149385695   -2.00000000000
     -9.76205236604    2.96109209923   -3.23990596489   -2.00000000000
      9.76206552636    2.96109209923   -3.23990596489   -2.00000000000
      9.76206552636   -2.96109497270   -3.23990596489   -2.00000000000
     -9.76205236604   -2.96109497270   -3.23990596489   -2.00000000000
     -3.25402271772    2.96109253364   -9.76733754826   -2.00000000000
      3.25401657974    2.96109253364   -9.76733754826   -2.00000000000
      3.25401657974   -2.96109453828   -9.76733754826   -2.00000000000
     -3.25402271772   -2.96109453828   -9.76733754826   -2.00000000000
     -0.00000306899    5.92218606960   -9.05750075987   -2.00000000000
     -0.00000306899   -5.92218807425   -9.05750075987   -2.00000000000
      9.76199144908    1.48054533538   -4.59991327640    4.00000000000
      9.76199125328   -1.48054722422   -4.59991284715    4.00000000000
     -9.76212644332    1.48054533538   -4.59991327640    4.00000000000
     -9.76212663912   -1.48054722422   -4.59991284715    4.00000000000
     -1.98193128755    7.40273283758   -7.78540932970   -2.00000000000
      1.98192514957    7.40273283758   -7.78540932970   -2.00000000000
      1.98192514957   -7.40273484223   -7.78540932970   -2.00000000000
     -1.98193128755   -7.40273484223   -7.78540932970   -2.00000000000
     -6.50804236645    5.92218606960   -6.51331789952   -2.00000000000
      6.50803622848    5.92218606960   -6.51331789952   -2.00000000000
      6.50803622848   -5.92218807425   -6.51331789952   -2.00000000000
     -6.50804236645   -5.92218807425   -6.51331789952   -2.00000000000
     -6.50803967498    8.88327862225   -0.00000271770   -2.00000000000
      6.50803891995    8.88327862225   -0.00000271770   -2.00000000000
      6.50803891995   -8.88328259352   -0.00000271770   -2.00000000000
     -6.50803967498   -8.88328259352   -0.00000271770   -2.00000000000
     -0.00000306899    8.88327960557   -6.51331789952   -2.00000000000
     -0.00000306899   -8.88328161021   -6.51331789952   -2.00000000000
     -0.00000306899   -0.00000100232  -11.03942897843    4.00000000000
     -6.50804236645    4.44163930162   -7.78540932970    4.00000000000
      6.50803622848    4.44163930162   -7.78540932970    4.00000000000
      6.50803622848   -4.44164130627   -7.78540932970    4.00000000000
     -6.50804236645   -4.44164130627   -7.78540932970    4.00000000000
     -3.25401413420    8.88327982762   -5.78839415273   -2.00000000000
      3.25402516327    8.88327982762   -5.78839415273   -2.00000000000
      3.25402516327   -8.88328138815   -5.78839415273   -2.00000000000
     -3.25401413420   -8.88328138815   -5.78839415273   -2.00000000000
    -10.98081324740    1.48054527935   -1.11149163807   -2.00000000000
     10.98081945346    1.48054518365   -1.11149385695   -2.00000000000
     10.98081952031   -1.48054722666   -1.11149503385   -2.00000000000
    -10.98081388475   -1.48054700097   -1.11149295951   -2.00000000000
      6.50803622848   -0.00000100232   -9.05750075987   -2.00000000000
     -6.50804236645   -0.00000100232   -9.05750075987   -2.00000000000
     -1.27209449916    1.48054576566  -11.03942897843   -2.00000000000
      1.27208836119    1.48054576566  -11.03942897843   -2.00000000000
      1.27208836119   -1.48054777030  -11.03942897843   -2.00000000000
     -1.27209449916   -1.48054777030  -11.03942897843   -2.00000000000
     -6.50803479753    8.88327906392   -2.54840438198   -2.00000000000
      6.50804379741    8.88327906392   -2.54840438198   -2.00000000000
      6.50804379741   -8.88328215185   -2.54840438198   -2.00000000000
     -6.50803479753   -8.88328215185   -2.54840438198   -2.00000000000
     -4.47277458729   10.36382714288   -1.11149295951   -2.00000000000
      4.47278022285   10.36382691719   -1.11149503385   -2.00000000000
      4.47278015600  -10.36382896020   -1.11149385695   -2.00000000000
     -4.47277394994  -10.36382886450   -1.11149163807   -2.00000000000
      9.76206431043   -0.00000107099   -5.78839374873   -2.00000000000
     -9.76205358197   -0.00000107099   -5.78839374873   -2.00000000000
     -8.54329843894    7.40273225558   -1.11149385695   -2.00000000000
      8.54330464500    7.40273235128   -1.11149163807   -2.00000000000
      8.54330400764   -7.40273407290   -1.11149295951   -2.00000000000
     -8.54329837208   -7.40273429859   -1.11149503385   -2.00000000000
     -1.30106798933   10.36382609315   -4.51644946585   -2.00000000000
      1.30109095673   10.36382593172   -4.51645492343   -2.00000000000
      1.30109103436  -10.36382823372   -4.51645509582   -2.00000000000
     -1.30106804451  -10.36382813772   -4.51644966155   -2.00000000000
     -0.00000306899    2.96109253364  -11.03942897843    4.00000000000
     -0.00000306899   -2.96109453828  -11.03942897843    4.00000000000
     -9.76205540302    5.92218595157   -1.42716202606    4.00000000000
      9.76206248938    5.92218595157   -1.42716202606    4.00000000000
      9.76206248938   -5.92218819228   -1.42716202606    4.00000000000
     -9.76205540302   -5.92218819228   -1.42716202606    4.00000000000
     -6.50804236645    2.96109253364   -9.05750075987   -2.00000000000
      6.50803622848    2.96109253364   -9.05750075987   -2.00000000000
      6.50803622848   -2.96109453828   -9.05750075987   -2.00000000000
     -6.50804236645   -2.96109453828   -9.05750075987   -2.00000000000
     -3.25402271772    1.48054576566  -11.03942897843    4.00000000000
      3.25401657974    1.48054576566  -11.03942897843    4.00000000000
      3.25401657974   -1.48054777030  -11.03942897843    4.00000000000
     -3.25402271772   -1.48054777030  -11.03942897843    4.00000000000
     -8.48997058501    1.48054576566   -7.78540932970   -2.00000000000
      8.48996444703    1.48054576566   -7.78540932970   -2.00000000000
      8.48996444703   -1.48054777030   -7.78540932970   -2.00000000000
     -8.48997058501   -1.48054777030   -7.78540932970   -2.00000000000
     -4.52611414790    7.40273283758   -7.78540932970   -2.00000000000
      4.52610800992    7.40273283758   -7.78540932970   -2.00000000000
      4.52610800992   -7.40273484223   -7.78540932970   -2.00000000000
     -4.52611414790   -7.40273484223   -7.78540932970   -2.00000000000
     -7.80910734197    7.40273307806   -4.51644966155   -2.00000000000
      7.80913033182    7.40273298205   -4.51645509582   -2.00000000000
      7.80913025419   -7.40273528405   -4.51645492343   -2.00000000000
     -7.80910728680   -7.40273512263   -4.51644946585   -2.00000000000
      9.76199125328    4.44163984770   -4.59991284715    4.00000000000
      9.76199144908   -4.44164173655   -4.59991327640    4.00000000000
     -9.76212663912    4.44163984770   -4.59991284715    4.00000000000
     -9.76212644332   -4.44164173655   -4.59991327640    4.00000000000
     -9.76205343167    2.96109275570   -5.78839415273   -2.00000000000
      9.76206446073    2.96109275570   -5.78839415273   -2.00000000000
      9.76206446073   -2.96109431623   -5.78839415273   -2.00000000000
     -9.76205343167   -2.96109431623   -5.78839415273   -2.00000000000
     -3.25408734165   10.36382691963   -4.59991284715    4.00000000000
      3.25395195581   10.36382691963   -4.59991284715    4.00000000000
      3.25395215162  -10.36382880847   -4.59991327640    4.00000000000
     -3.25408714585  -10.36382880847   -4.59991327640    4.00000000000
      0.00000000000   11.84437414385    0.00000000000   -2.00000000000
      0.00000000000  -11.84437414385    0.00000000000   -2.00000000000
      6.50798723387    8.88328008829   -4.41288206312    4.00000000000
      6.50798723387   -8.88328112748   -4.41288206312    4.00000000000
     -6.50809136106    8.88328008829   -4.41288206312    4.00000000000
     -6.50809136106   -8.88328112748   -4.41288206312    4.00000000000
     -9.76205256063    5.92218643528   -3.23990501486   -2.00000000000
      9.76206533176    5.92218643528   -3.23990501486   -2.00000000000
      9.76206533176   -5.92218770857   -3.23990501486   -2.00000000000
     -9.76205256063   -5.92218770857   -3.23990501486   -2.00000000000
     -3.25402271772    5.92218606960   -9.76733754826   -2.00000000000
      3.25401657974    5.92218606960   -9.76733754826   -2.00000000000
      3.25401657974   -5.92218807425   -9.76733754826   -2.00000000000
     -3.25402271772   -5.92218807425   -9.76733754826   -2.00000000000
    -10.98081388475    4.44164007096   -1.11149295951   -2.00000000000
     10.98081952031    4.44163984526   -1.11149503385   -2.00000000000
     10.98081945346   -4.44164188827   -1.11149385695   -2.00000000000
    -10.98081324740   -4.44164179257   -1.11149163807   -2.00000000000
     -1.27209449916    4.44163930162  -11.03942897843   -2.00000000000
      1.27208836119    4.44163930162  -11.03942897843   -2.00000000000
      1.27208836119   -4.44164130627  -11.03942897843   -2.00000000000
     -1.27209449916   -4.44164130627  -11.03942897843   -2.00000000000
      0.00000442396   11.84437302399   -2.54840301833   -2.00000000000
      0.00000442396  -11.84437526371   -2.54840301833   -2.00000000000
     -3.25402271772    8.88327960557   -7.78540932970    4.00000000000
      3.25401657974    8.88327960557   -7.78540932970    4.00000000000
      3.25401657974   -8.88328161021   -7.78540932970    4.00000000000
     -3.25402271772   -8.88328161021   -7.78540932970    4.00000000000
     -6.50803377645   10.36382101999   -1.06892138720    4.00000000000
      6.50804481848   10.36382101999   -1.06892138720    4.00000000000
      6.50804466744  -10.36382264685   -1.06892606631    4.00000000000
     -6.50803392749  -10.36382264685   -1.06892606631    4.00000000000
     -5.23595093628    1.48054576566  -11.03942897843   -2.00000000000
      5.23594479830    1.48054576566  -11.03942897843   -2.00000000000
      5.23594479830   -1.48054777030  -11.03942897843   -2.00000000000
     -5.23595093628   -1.48054777030  -11.03942897843   -2.00000000000
     -3.25402271772    4.44163930162  -11.03942897843    4.00000000000
      3.25401657974    4.44163930162  -11.03942897843    4.00000000000
      3.25401657974   -4.44164130627  -11.03942897843    4.00000000000
     -3.25402271772   -4.44164130627  -11.03942897843    4.00000000000
     -8.48997058501    4.44163930162   -7.78540932970   -2.00000000000
      8.48996444703    4.44163930162   -7.78540932970   -2.00000000000
      8.48996444703   -4.44164130627   -7.78540932970   -2.00000000000
     -8.48997058501   -4.44164130627   -7.78540932970   -2.00000000000
     -3.25401610555   11.84437302349   -1.42716202606    4.00000000000
      3.25402319191   11.84437302349   -1.42716202606    4.00000000000
      3.25402319191  -11.84437526421   -1.42716202606    4.00000000000
     -3.25401610555  -11.84437526421   -1.42716202606    4.00000000000
     -5.20694834074   10.36382593172   -4.51645492343   -2.00000000000
      5.20697130813   10.36382609315   -4.51644946585   -2.00000000000
      5.20697125296  -10.36382813772   -4.51644966155   -2.00000000000
     -5.20694826311  -10.36382823372   -4.51645509582   -2.00000000000
      9.76205587721   -0.00000100232   -7.78540932970    4.00000000000
     -9.76206201519   -0.00000100232   -7.78540932970    4.00000000000
     -0.00000306899    5.92218606960  -11.03942897843    4.00000000000
     -0.00000306899   -5.92218807425  -11.03942897843    4.00000000000
     -6.50804236645    7.40273283758   -7.78540932970    4.00000000000
      6.50803622848    7.40273283758   -7.78540932970    4.00000000000
      6.50803622848   -7.40273484223   -7.78540932970    4.00000000000
     -6.50804236645   -7.40273484223   -7.78540932970    4.00000000000
     -6.50804236645    5.92218606960   -9.05750075987   -2.00000000000
      6.50803622848    5.92218606960   -9.05750075987   -2.00000000000
      6.50803622848   -5.92218807425   -9.05750075987   -2.00000000000
     -6.50804236645   -5.92218807425   -9.05750075987   -2.00000000000
     -0.00005220374   11.84437343371   -4.41288396045    4.00000000000
     -0.00005220374  -11.84437485399   -4.41288396045    4.00000000000
    -11.71498756057    1.48054591013   -4.51645509582   -2.00000000000
     11.71501055042    1.48054600613   -4.51644966155   -2.00000000000
     11.71501060560   -1.48054805070   -4.51644946585   -2.00000000000
    -11.71498763820   -1.48054821213   -4.51645492343   -2.00000000000
     -0.00000306899    8.88327960557   -9.05750075987   -2.00000000000
     -0.00000306899   -8.88328161021   -9.05750075987   -2.00000000000
     -3.25401326317   11.84437350720   -3.23990501486   -2.00000000000
      3.25402603430   11.84437350720   -3.23990501486   -2.00000000000
      3.25402603430  -11.84437478050   -3.23990501486   -2.00000000000
     -3.25401326317  -11.84437478050   -3.23990501486   -2.00000000000
      3.25401657974   -0.00000100232  -12.31152040860   -2.00000000000
     -3.25402271772   -0.00000100232  -12.31152040860   -2.00000000000
     -6.50804236645    8.88327960557   -6.51331789952   -2.00000000000
      6.50803622848    8.88327960557   -6.51331789952   -2.00000000000
      6.50803622848   -8.88328161021   -6.51331789952   -2.00000000000
     -6.50804236645   -8.88328161021   -6.51331789952   -2.00000000000
     -9.76205358197    5.92218600093   -5.78839374873   -2.00000000000
      9.76206431043    5.92218600093   -5.78839374873   -2.00000000000
      9.76206431043   -5.92218814292   -5.78839374873   -2.00000000000
     -9.76205358197   -5.92218814292   -5.78839374873   -2.00000000000
      6.50803622848   -0.00000100232  -11.03942897843    4.00000000000
     -6.50804236645   -0.00000100232  -11.03942897843    4.00000000000
     -9.76206201519    2.96109253364   -7.78540932970    4.00000000000
      9.76205587721    2.96109253364   -7.78540932970    4.00000000000
      9.76205587721   -2.96109453828   -7.78540932970    4.00000000000
     -9.76206201519   -2.96109453828   -7.78540932970    4.00000000000
     -0.00000306899   10.36382637355   -7.78540932970    4.00000000000
     -0.00000306899  -10.36382837819   -7.78540932970    4.00000000000
     -5.23595093628    4.44163930162  -11.03942897843   -2.00000000000
      5.23594479830    4.44163930162  -11.03942897843   -2.00000000000
      5.23594479830   -4.44164130627  -11.03942897843   -2.00000000000
     -5.23595093628   -4.44164130627  -11.03942897843   -2.00000000000
    -13.01607859493    0.00000000000    0.00000000000   -2.00000000000
     13.01607859493    0.00000000000    0.00000000000   -2.00000000000
     -0.00000306899   -0.00000100232  -13.02135719699   -2.00000000000
     -3.25402271772    2.96109253364  -12.31152040860   -2.00000000000
      3.25401657974    2.96109253364  -12.31152040860   -2.00000000000
      3.25401657974   -2.96109453828  -12.31152040860   -2.00000000000
     -3.25402271772   -2.96109453828  -12.31152040860   -2.00000000000
      9.76199144908    7.40273240730   -4.59991327640    4.00000000000
      9.76199125328   -7.40273429615   -4.59991284715    4.00000000000
     -9.76212644332    7.40273240730   -4.59991327640    4.00000000000
     -9.76212663912   -7.40273429615   -4.59991284715    4.00000000000
     -1.98193128755   10.36382637355   -7.78540932970   -2.00000000000
      1.98192514957   10.36382637355   -7.78540932970   -2.00000000000
      1.98192514957  -10.36382837819   -7.78540932970   -2.00000000000
     -1.98193128755  -10.36382837819   -7.78540932970   -2.00000000000
    -13.01607322496    1.48055149700   -1.06892606631    4.00000000000
     13.01608396490    1.48055149700   -1.06892606631    4.00000000000
     13.01608411594   -1.48055312386   -1.06892138720    4.00000000000
    -13.01607307392   -1.48055312386   -1.06892138720    4.00000000000
     -6.50804236645    2.96109253364  -11.03942897843    4.00000000000
      6.50803622848    2.96109253364  -11.03942897843    4.00000000000
      6.50803622848   -2.96109453828  -11.03942897843    4.00000000000
     -6.50804236645   -2.96109453828  -11.03942897843    4.00000000000
     13.01608301889   -0.00000111986   -2.54840301833   -2.00000000000
    -13.01607417097   -0.00000111986   -2.54840301833   -2.00000000000
     -9.76205598036    8.88328009748   -1.42716235830    4.00000000000
      9.76206191204    8.88328009748   -1.42716235830    4.00000000000
      9.76206191204   -8.88328111830   -1.42716235830    4.00000000000
     -9.76205598036   -8.88328111830   -1.42716235830    4.00000000000
    -10.98081324740    7.40273235128   -1.11149163807   -2.00000000000
     10.98081945346    7.40273225558   -1.11149385695   -2.00000000000
     10.98081952031   -7.40273429859   -1.11149503385   -2.00000000000
    -10.98081388475   -7.40273407290   -1.11149295951   -2.00000000000
    -11.71498763820    4.44163885980   -4.51645492343   -2.00000000000
     11.71501060560    4.44163902122   -4.51644946585   -2.00000000000
     11.71501055042   -4.44164106579   -4.51644966155   -2.00000000000
    -11.71498756057   -4.44164116180   -4.51645509582   -2.00000000000
    -13.01607897245    2.96109155033   -0.00000271770   -2.00000000000
     13.01607821741    2.96109155033   -0.00000271770   -2.00000000000
     13.01607821741   -2.96109552160   -0.00000271770   -2.00000000000
    -13.01607897245   -2.96109552160   -0.00000271770   -2.00000000000
     -1.27209449916    7.40273283758  -11.03942897843   -2.00000000000
      1.27208836119    7.40273283758  -11.03942897843   -2.00000000000
      1.27208836119   -7.40273484223  -11.03942897843   -2.00000000000
     -1.27209449916   -7.40273484223  -11.03942897843   -2.00000000000
     -0.00000306899    2.96109253364  -13.02135719699   -2.00000000000
     -0.00000306899   -2.96109453828  -13.02135719699   -2.00000000000
      0.00000536997   13.32492564085   -1.06892606631    4.00000000000
      0.00000552101  -13.32492726771   -1.06892138720    4.00000000000
     -8.54329837208   10.36382691719   -1.11149503385   -2.00000000000
      8.54330400764   10.36382714288   -1.11149295951   -2.00000000000
      8.54330464500  -10.36382886450   -1.11149163807   -2.00000000000
     -8.54329843894  -10.36382896020   -1.11149385695   -2.00000000000
     -6.50803929747   11.84437414385    0.00000000000   -2.00000000000
      6.50803929747   11.84437414385    0.00000000000   -2.00000000000
      6.50803929747  -11.84437414385    0.00000000000   -2.00000000000
     -6.50803929747  -11.84437414385    0.00000000000   -2.00000000000
     -0.00000306899   11.84437314153   -6.51331789952   -2.00000000000
     -0.00000306899  -11.84437514617   -6.51331789952   -2.00000000000
     -2.03525914147   13.32491932750   -1.11149385695   -2.00000000000
      2.03526534753   13.32491942320   -1.11149163807   -2.00000000000
      2.03526471018  -13.32492114482   -1.11149295951   -2.00000000000
     -2.03525907462  -13.32492137051   -1.11149503385   -2.00000000000
     -3.25401428450   11.84437307286   -5.78839374873   -2.00000000000
      3.25402501297   11.84437307286   -5.78839374873   -2.00000000000
      3.25402501297  -11.84437521484   -5.78839374873   -2.00000000000
     -3.25401428450  -11.84437521484   -5.78839374873   -2.00000000000
    -11.03415344536    1.48054576566   -7.78540932970   -2.00000000000
     11.03414730738    1.48054576566   -7.78540932970   -2.00000000000
     11.03414730738   -1.48054777030   -7.78540932970   -2.00000000000
    -11.03415344536   -1.48054777030   -7.78540932970   -2.00000000000
     -7.78013379663    1.48054576566  -11.03942897843   -2.00000000000
      7.78012765865    1.48054576566  -11.03942897843   -2.00000000000
      7.78012765865   -1.48054777030  -11.03942897843   -2.00000000000
     -7.78013379663   -1.48054777030  -11.03942897843   -2.00000000000
    -13.01607409499    2.96109199200   -2.54840438198   -2.00000000000
     13.01608309487    2.96109199200   -2.54840438198   -2.00000000000
     13.01608309487   -2.96109507993   -2.54840438198   -2.00000000000
    -13.01607409499   -2.96109507993   -2.54840438198   -2.00000000000
     -9.76205236604    8.88327917115   -3.23990596489   -2.00000000000
      9.76206552636    8.88327917115   -3.23990596489   -2.00000000000
      9.76206552636   -8.88328204462   -3.23990596489   -2.00000000000
     -9.76205236604   -8.88328204462   -3.23990596489   -2.00000000000
     -3.25402271772    8.88327960557   -9.76733754826   -2.00000000000
      3.25401657974    8.88327960557   -9.76733754826   -2.00000000000
      3.25401657974   -8.88328161021   -9.76733754826   -2.00000000000
     -3.25402271772   -8.88328161021   -9.76733754826   -2.00000000000
     -3.25402271772    7.40273283758  -11.03942897843    4.00000000000
      3.25401657974    7.40273283758  -11.03942897843    4.00000000000
      3.25401657974   -7.40273484223  -11.03942897843    4.00000000000
     -3.25402271772   -7.40273484223  -11.03942897843    4.00000000000
     -8.48997058501    7.40273283758   -7.78540932970   -2.00000000000
      8.48996444703    7.40273283758   -7.78540932970   -2.00000000000
      8.48996444703   -7.40273484223   -7.78540932970   -2.00000000000
     -8.48997058501   -7.40273484223   -7.78540932970   -2.00000000000
     -4.52611414790   10.36382637355   -7.78540932970   -2.00000000000
      4.52610800992   10.36382637355   -7.78540932970   -2.00000000000
      4.52610800992  -10.36382837819   -7.78540932970   -2.00000000000
     -4.52611414790  -10.36382837819   -7.78540932970   -2.00000000000
     -7.80910728680   10.36382609315   -4.51644946585   -2.00000000000
      7.80913025419   10.36382593172   -4.51645492343   -2.00000000000
      7.80913033182  -10.36382823372   -4.51645509582   -2.00000000000
     -7.80910734197  -10.36382813772   -4.51644966155   -2.00000000000
     13.01602639119   -0.00000071014   -4.41288396045    4.00000000000
    -13.01613079868   -0.00000071014   -4.41288396045    4.00000000000
     -6.50803487351   11.84437302399   -2.54840301833   -2.00000000000
      6.50804372142   11.84437302399   -2.54840301833   -2.00000000000
      6.50804372142  -11.84437526371   -2.54840301833   -2.00000000000
     -6.50803487351  -11.84437526371   -2.54840301833   -2.00000000000
    -13.01607307392    4.44163394806   -1.06892138720    4.00000000000
     13.01608411594    4.44163394806   -1.06892138720    4.00000000000
     13.01608396490   -4.44163557493   -1.06892606631    4.00000000000
    -13.01607322496   -4.44163557493   -1.06892606631    4.00000000000
      9.76205587721   -0.00000100232   -9.76733754826   -2.00000000000
     -9.76206201519   -0.00000100232   -9.76733754826   -2.00000000000
     -9.76206201519    5.92218606960   -7.78540932970    4.00000000000
      9.76205587721    5.92218606960   -7.78540932970    4.00000000000
      9.76205587721   -5.92218807425   -7.78540932970    4.00000000000
     -9.76206201519   -5.92218807425   -7.78540932970    4.00000000000
     -3.25402271772    5.92218606960  -12.31152040860   -2.00000000000
      3.25401657974    5.92218606960  -12.31152040860   -2.00000000000
      3.25401657974   -5.92218807425  -12.31152040860   -2.00000000000
     -3.25402271772   -5.92218807425  -12.31152040860   -2.00000000000
     13.01602653134    2.96109301637   -4.41288206312    4.00000000000
     13.01602653134   -2.96109405556   -4.41288206312    4.00000000000
    -13.01613065852    2.96109301637   -4.41288206312    4.00000000000
    -13.01613065852   -2.96109405556   -4.41288206312    4.00000000000
     -4.47277394994   13.32491942320   -1.11149163807   -2.00000000000
      4.47278015600   13.32491932750   -1.11149385695   -2.00000000000
      4.47278022285  -13.32492137051   -1.11149503385   -2.00000000000
     -4.47277458729  -13.32492114482   -1.11149295951   -2.00000000000
     -6.50804236645    5.92218606960  -11.03942897843    4.00000000000
      6.50803622848    5.92218606960  -11.03942897843    4.00000000000
      6.50803622848   -5.92218807425  -11.03942897843    4.00000000000
     -6.50804236645   -5.92218807425  -11.03942897843    4.00000000000
     -9.76206201519    2.96109253364   -9.76733754826   -2.00000000000
      9.76205587721    2.96109253364   -9.76733754826   -2.00000000000
      9.76205587721   -2.96109453828   -9.76733754826   -2.00000000000
     -9.76206201519   -2.96109453828   -9.76733754826   -2.00000000000
     -1.30106804451   13.32492014998   -4.51644966155   -2.00000000000
      1.30109103436   13.32492005398   -4.51645509582   -2.00000000000
      1.30109095673  -13.32492235598   -4.51645492343   -2.00000000000
     -1.30106798933  -13.32492219455   -4.51644946585   -2.00000000000
     -0.00000306899    8.88327960557  -11.03942897843    4.00000000000
     -0.00000306899   -8.88328161021  -11.03942897843    4.00000000000
    -11.03415344536    4.44163930162   -7.78540932970   -2.00000000000
     11.03414730738    4.44163930162   -7.78540932970   -2.00000000000
     11.03414730738   -4.44164130627   -7.78540932970   -2.00000000000
    -11.03415344536   -4.44164130627   -7.78540932970   -2.00000000000
     -6.50809150121   11.84437343371   -4.41288396045    4.00000000000
      6.50798709372   11.84437343371   -4.41288396045    4.00000000000
      6.50798709372  -11.84437485399   -4.41288396045    4.00000000000
     -6.50809150121  -11.84437485399   -4.41288396045    4.00000000000
     -7.78013379663    4.44163930162  -11.03942897843   -2.00000000000
      7.78012765865    4.44163930162  -11.03942897843   -2.00000000000
      7.78012765865   -4.44164130627  -11.03942897843   -2.00000000000
     -7.78013379663   -4.44164130627  -11.03942897843   -2.00000000000
     -6.50804236645    8.88327960557   -9.05750075987   -2.00000000000
      6.50803622848    8.88327960557   -9.05750075987   -2.00000000000
      6.50803622848   -8.88328161021   -9.05750075987   -2.00000000000
     -6.50804236645   -8.88328161021   -9.05750075987   -2.00000000000
     -5.23595093628    7.40273283758  -11.03942897843   -2.00000000000
      5.23594479830    7.40273283758  -11.03942897843   -2.00000000000
      5.23594479830   -7.40273484223  -11.03942897843   -2.00000000000
     -5.23595093628   -7.40273484223  -11.03942897843   -2.00000000000
    -13.01607859493    5.92218707193    0.00000000000   -2.00000000000
     13.01607859493    5.92218707193    0.00000000000   -2.00000000000
     13.01607859493   -5.92218707193    0.00000000000   -2.00000000000
    -13.01607859493   -5.92218707193    0.00000000000   -2.00000000000
     -0.00000306899    5.92218606960  -13.02135719699   -2.00000000000
     -0.00000306899   -5.92218807425  -13.02135719699   -2.00000000000
     -0.00000306899    1.48054576566  -14.29344862716    4.00000000000
     -0.00000306899   -1.48054777030  -14.29344862716    4.00000000000
     -9.76205343167    8.88327982762   -5.78839415273   -2.00000000000
      9.76206446073    8.88327982762   -5.78839415273   -2.00000000000
      9.76206446073   -8.88328138815   -5.78839415273   -2.00000000000
     -9.76205343167   -8.88328138815   -5.78839415273   -2.00000000000
     -3.25408714585   13.32491947923   -4.59991327640    4.00000000000
      3.25395215162   13.32491947923   -4.59991327640    4.00000000000
      3.25395195581  -13.32492136807   -4.59991284715    4.00000000000
     -3.25408734165  -13.32492136807   -4.59991284715    4.00000000000
     -6.50804236645   10.36382637355   -7.78540932970    4.00000000000
      6.50803622848   10.36382637355   -7.78540932970    4.00000000000
      6.50803622848  -10.36382837819   -7.78540932970    4.00000000000
     -6.50804236645  -10.36382837819   -7.78540932970    4.00000000000
     -1.98193128755    1.48054576566  -14.29344862716   -2.00000000000
      1.98192514957    1.48054576566  -14.29344862716   -2.00000000000
      1.98192514957   -1.48054777030  -14.29344862716   -2.00000000000
     -1.98193128755   -1.48054777030  -14.29344862716   -2.00000000000
    -13.01607417097    5.92218595207   -2.54840301833   -2.00000000000
     13.01608301889    5.92218595207   -2.54840301833   -2.00000000000
     13.01608301889   -5.92218819178   -2.54840301833   -2.00000000000
    -13.01607417097   -5.92218819178   -2.54840301833   -2.00000000000
     -3.25402271772   11.84437314153   -7.78540932970    4.00000000000
      3.25401657974   11.84437314153   -7.78540932970    4.00000000000
      3.25401657974  -11.84437514617   -7.78540932970    4.00000000000
     -3.25402271772  -11.84437514617   -7.78540932970    4.00000000000
     13.01607552594   -0.00000100232   -6.51331789952   -2.00000000000
    -13.01608166392   -0.00000100232   -6.51331789952   -2.00000000000
      6.50803622848   -0.00000100232  -13.02135719699   -2.00000000000
     -6.50804236645   -0.00000100232  -13.02135719699   -2.00000000000
    -11.71498756057    7.40273298205   -4.51645509582   -2.00000000000
     11.71501055042    7.40273307806   -4.51644966155   -2.00000000000
     11.71501060560   -7.40273512263   -4.51644946585   -2.00000000000
    -11.71498763820   -7.40273528405   -4.51645492343   -2.00000000000
      3.25401657974   -0.00000100232  -14.29344862716    4.00000000000
     -3.25402271772   -0.00000100232  -14.29344862716    4.00000000000
     -0.00000037752   14.80546569418   -0.00000271770   -2.00000000000
     -0.00000037752  -14.80546966545   -0.00000271770   -2.00000000000
     -9.76206201519    1.48054576566  -11.03942897843    4.00000000000
      9.76205587721    1.48054576566  -11.03942897843    4.00000000000
      9.76205587721   -1.48054777030  -11.03942897843    4.00000000000
     -9.76206201519   -1.48054777030  -11.03942897843    4.00000000000
    -13.01608166392    2.96109253364   -6.51331789952   -2.00000000000
     13.01607552594    2.96109253364   -6.51331789952   -2.00000000000
     13.01607552594   -2.96109453828   -6.51331789952   -2.00000000000
    -13.01608166392   -2.96109453828   -6.51331789952   -2.00000000000
     -6.50804236645    2.96109253364  -13.02135719699   -2.00000000000
      6.50803622848    2.96109253364  -13.02135719699   -2.00000000000
      6.50803622848   -2.96109453828  -13.02135719699   -2.00000000000
     -6.50804236645   -2.96109453828  -13.02135719699   -2.00000000000
     -6.50803392749   13.32492564085   -1.06892606631    4.00000000000
      6.50804466744   13.32492564085   -1.06892606631    4.00000000000
      6.50804481848  -13.32492726771   -1.06892138720    4.00000000000
     -6.50803377645  -13.32492726771   -1.06892138720    4.00000000000
     -0.00000306899   11.84437314153   -9.05750075987   -2.00000000000
     -0.00000306899  -11.84437514617   -9.05750075987   -2.00000000000
     -3.25402271772    2.96109253364  -14.29344862716    4.00000000000
      3.25401657974    2.96109253364  -14.29344862716    4.00000000000
      3.25401657974   -2.96109453828  -14.29344862716    4.00000000000
     -3.25402271772   -2.96109453828  -14.29344862716    4.00000000000
      9.76199125328   10.36382691963   -4.59991284715    4.00000000000
      9.76199144908  -10.36382880847   -4.59991327640    4.00000000000
     -9.76212663912   10.36382691963   -4.59991284715    4.00000000000
     -9.76212644332  -10.36382880847   -4.59991327640    4.00000000000
     13.01602639119    5.92218636178   -4.41288396045    4.00000000000
     13.01602639119   -5.92218778207   -4.41288396045    4.00000000000
    -13.01613079868    5.92218636178   -4.41288396045    4.00000000000
    -13.01613079868   -5.92218778207   -4.41288396045    4.00000000000
     -0.00000306899    4.44163930162  -14.29344862716    4.00000000000
     -0.00000306899   -4.44164130627  -14.29344862716    4.00000000000
     -5.20694826311   13.32492005398   -4.51645509582   -2.00000000000
      5.20697125296   13.32492014998   -4.51644966155   -2.00000000000
      5.20697130813  -13.32492219455   -4.51644946585   -2.00000000000
     -5.20694834074  -13.32492235598   -4.51645492343   -2.00000000000
     -6.50804236645   11.84437314153   -6.51331789952   -2.00000000000
      6.50803622848   11.84437314153   -6.51331789952   -2.00000000000
      6.50803622848  -11.84437514617   -6.51331789952   -2.00000000000
     -6.50804236645  -11.84437514617   -6.51331789952   -2.00000000000
    -13.01607322496    7.40273856892   -1.06892606631    4.00000000000
     13.01608396490    7.40273856892   -1.06892606631    4.00000000000
     13.01608411594   -7.40274019579   -1.06892138720    4.00000000000
    -13.01607307392   -7.40274019579   -1.06892138720    4.00000000000
      0.00000449994   14.80546613585   -2.54840438198   -2.00000000000
      0.00000449994  -14.80546922378   -2.54840438198   -2.00000000000
     -9.76206201519    5.92218606960   -9.76733754826   -2.00000000000
      9.76205587721    5.92218606960   -9.76733754826   -2.00000000000
      9.76205587721   -5.92218807425   -9.76733754826   -2.00000000000
     -9.76206201519   -5.92218807425   -9.76733754826   -2.00000000000
     -4.52611414790    1.48054576566  -14.29344862716   -2.00000000000
      4.52610800992    1.48054576566  -14.29344862716   -2.00000000000
      4.52610800992   -1.48054777030  -14.29344862716   -2.00000000000
     -4.52611414790   -1.48054777030  -14.29344862716   -2.00000000000
    -14.31714663944    1.48054600613   -4.51644966155   -2.00000000000
     14.31716962929    1.48054591013   -4.51645509582   -2.00000000000
     14.31716955166   -1.48054821213   -4.51645492343   -2.00000000000
    -14.31714658426   -1.48054805070   -4.51644946585   -2.00000000000
     -1.98193128755    4.44163930162  -14.29344862716   -2.00000000000
      1.98192514957    4.44163930162  -14.29344862716   -2.00000000000
      1.98192514957   -4.44164130627  -14.29344862716   -2.00000000000
     -1.98193128755   -4.44164130627  -14.29344862716   -2.00000000000
    -10.98081388475   10.36382714288   -1.11149295951   -2.00000000000
     10.98081952031   10.36382691719   -1.11149503385   -2.00000000000
     10.98081945346  -10.36382896020   -1.11149385695   -2.00000000000
    -10.98081324740  -10.36382886450   -1.11149163807   -2.00000000000
    -15.05133773640    1.48054518365   -1.11149385695   -2.00000000000
     15.05134394246    1.48054527935   -1.11149163807   -2.00000000000
     15.05134330511   -1.48054700097   -1.11149295951   -2.00000000000
    -15.05133766955   -1.48054722666   -1.11149503385   -2.00000000000
     -1.27209449916   10.36382637355  -11.03942897843   -2.00000000000
      1.27208836119   10.36382637355  -11.03942897843   -2.00000000000
      1.27208836119  -10.36382837819  -11.03942897843   -2.00000000000
     -1.27209449916  -10.36382837819  -11.03942897843   -2.00000000000
     -3.25401668289   14.80546716940   -1.42716235830    4.00000000000
      3.25402261457   14.80546716940   -1.42716235830    4.00000000000
      3.25402261457  -14.80546819023   -1.42716235830    4.00000000000
     -3.25401668289  -14.80546819023   -1.42716235830    4.00000000000
    -13.01608166392    1.48054576566   -7.78540932970    4.00000000000
     13.01607552594    1.48054576566   -7.78540932970    4.00000000000
     13.01607552594   -1.48054777030   -7.78540932970    4.00000000000
    -13.01608166392   -1.48054777030   -7.78540932970    4.00000000000
     -9.76206201519    8.88327960557   -7.78540932970    4.00000000000
      9.76205587721    8.88327960557   -7.78540932970    4.00000000000
      9.76205587721   -8.88328161021   -7.78540932970    4.00000000000
     -9.76206201519   -8.88328161021   -7.78540932970    4.00000000000
     -9.76206201519    4.44163930162  -11.03942897843    4.00000000000
      9.76205587721    4.44163930162  -11.03942897843    4.00000000000
      9.76205587721   -4.44164130627  -11.03942897843    4.00000000000
     -9.76206201519   -4.44164130627  -11.03942897843    4.00000000000
    -11.03415344536    7.40273283758   -7.78540932970   -2.00000000000
     11.03414730738    7.40273283758   -7.78540932970   -2.00000000000
     11.03414730738   -7.40273484223   -7.78540932970   -2.00000000000
    -11.03415344536   -7.40273484223   -7.78540932970   -2.00000000000
     -7.78013379663    7.40273283758  -11.03942897843   -2.00000000000
      7.78012765865    7.40273283758  -11.03942897843   -2.00000000000
      7.78012765865   -7.40273484223  -11.03942897843   -2.00000000000
     -7.78013379663   -7.40273484223  -11.03942897843   -2.00000000000
     -9.76205540302   11.84437302349   -1.42716202606    4.00000000000
      9.76206248938   11.84437302349   -1.42716202606    4.00000000000
      9.76206248938  -11.84437526421   -1.42716202606    4.00000000000
     -9.76205540302  -11.84437526421   -1.42716202606    4.00000000000
     -0.00000306899   13.32491990951   -7.78540932970    4.00000000000
     -0.00000306899  -13.32492191415   -7.78540932970    4.00000000000
     -0.00005206359   14.80546716022   -4.41288206312    4.00000000000
     -0.00005206359  -14.80546819941   -4.41288206312    4.00000000000
     -3.25402271772   10.36382637355  -11.03942897843    4.00000000000
      3.25401657974   10.36382637355  -11.03942897843    4.00000000000
      3.25401657974  -10.36382837819  -11.03942897843    4.00000000000
     -3.25402271772  -10.36382837819  -11.03942897843    4.00000000000
     -8.48997058501   10.36382637355   -7.78540932970   -2.00000000000
      8.48996444703   10.36382637355   -7.78540932970   -2.00000000000
      8.48996444703  -10.36382837819   -7.78540932970   -2.00000000000
     -8.48997058501  -10.36382837819   -7.78540932970   -2.00000000000
     -3.25401306857   14.80546624308   -3.23990596489   -2.00000000000
      3.25402622890   14.80546624308   -3.23990596489   -2.00000000000
      3.25402622890  -14.80546911655   -3.23990596489   -2.00000000000
     -3.25401306857  -14.80546911655   -3.23990596489   -2.00000000000
     -3.25402271772    8.88327960557  -12.31152040860   -2.00000000000
      3.25401657974    8.88327960557  -12.31152040860   -2.00000000000
      3.25401657974   -8.88328161021  -12.31152040860   -2.00000000000
     -3.25402271772   -8.88328161021  -12.31152040860   -2.00000000000
     -1.98193128755   13.32491990951   -7.78540932970   -2.00000000000
      1.98192514957   13.32491990951   -7.78540932970   -2.00000000000
      1.98192514957  -13.32492191415   -7.78540932970   -2.00000000000
     -1.98193128755  -13.32492191415   -7.78540932970   -2.00000000000
     -0.00000306899   -0.00000100232  -15.56554005734   -2.00000000000
     -6.50804236645    8.88327960557  -11.03942897843    4.00000000000
      6.50803622848    8.88327960557  -11.03942897843    4.00000000000
      6.50803622848   -8.88328161021  -11.03942897843    4.00000000000
     -6.50804236645   -8.88328161021  -11.03942897843    4.00000000000
     -4.52611414790    4.44163930162  -14.29344862716   -2.00000000000
      4.52610800992    4.44163930162  -14.29344862716   -2.00000000000
      4.52610800992   -4.44164130627  -14.29344862716   -2.00000000000
     -4.52611414790   -4.44164130627  -14.29344862716   -2.00000000000
    -14.31714658426    4.44163902122   -4.51644946585   -2.00000000000
     14.31716955166    4.44163885980   -4.51645492343   -2.00000000000
     14.31716962929   -4.44164116180   -4.51645509582   -2.00000000000
    -14.31714663944   -4.44164106579   -4.51644966155   -2.00000000000
     -9.76205256063   11.84437350720   -3.23990501486   -2.00000000000
      9.76206533176   11.84437350720   -3.23990501486   -2.00000000000
      9.76206533176  -11.84437478050   -3.23990501486   -2.00000000000
     -9.76205256063  -11.84437478050   -3.23990501486   -2.00000000000
     -3.25402271772   11.84437314153   -9.76733754826   -2.00000000000
      3.25401657974   11.84437314153   -9.76733754826   -2.00000000000
      3.25401657974  -11.84437514617   -9.76733754826   -2.00000000000
     -3.25402271772  -11.84437514617   -9.76733754826   -2.00000000000
      9.76205587721   -0.00000100232  -12.31152040860   -2.00000000000
     -9.76206201519   -0.00000100232  -12.31152040860   -2.00000000000
    -13.01608166392    5.92218606960   -6.51331789952   -2.00000000000
     13.01607552594    5.92218606960   -6.51331789952   -2.00000000000
     13.01607552594   -5.92218807425   -6.51331789952   -2.00000000000
    -13.01608166392   -5.92218807425   -6.51331789952   -2.00000000000
     -6.50804236645    5.92218606960  -13.02135719699   -2.00000000000
      6.50803622848    5.92218606960  -13.02135719699   -2.00000000000
      6.50803622848   -5.92218807425  -13.02135719699   -2.00000000000
     -6.50804236645   -5.92218807425  -13.02135719699   -2.00000000000
    -15.05133766955    4.44163984526   -1.11149503385   -2.00000000000
     15.05134330511    4.44164007096   -1.11149295951   -2.00000000000
     15.05134394246   -4.44164179257   -1.11149163807   -2.00000000000
    -15.05133773640   -4.44164188827   -1.11149385695   -2.00000000000
    -13.01607897245    8.88327862225   -0.00000271770   -2.00000000000
     13.01607821741    8.88327862225   -0.00000271770   -2.00000000000
     13.01607821741   -8.88328259352   -0.00000271770   -2.00000000000
    -13.01607897245   -8.88328259352   -0.00000271770   -2.00000000000
     -0.00000306899    8.88327960557  -13.02135719699   -2.00000000000
     -0.00000306899   -8.88328161021  -13.02135719699   -2.00000000000
     -6.50804236645    1.48054576566  -14.29344862716    4.00000000000
      6.50803622848    1.48054576566  -14.29344862716    4.00000000000
      6.50803622848   -1.48054777030  -14.29344862716    4.00000000000
     -6.50804236645   -1.48054777030  -14.29344862716    4.00000000000
    -13.01608166392    4.44163930162   -7.78540932970    4.00000000000
     13.01607552594    4.44163930162   -7.78540932970    4.00000000000
     13.01607552594   -4.44164130627   -7.78540932970    4.00000000000
    -13.01608166392   -4.44164130627   -7.78540932970    4.00000000000
     -3.25402271772    5.92218606960  -14.29344862716    4.00000000000
      3.25401657974    5.92218606960  -14.29344862716    4.00000000000
      3.25401657974   -5.92218807425  -14.29344862716    4.00000000000
     -3.25402271772   -5.92218807425  -14.29344862716    4.00000000000
     -0.00000306899    2.96109253364  -15.56554005734   -2.00000000000
     -0.00000306899   -2.96109453828  -15.56554005734   -2.00000000000
     13.01607552594   -0.00000100232   -9.05750075987   -2.00000000000
    -13.01608166392   -0.00000100232   -9.05750075987   -2.00000000000
     -8.54329843894   13.32491932750   -1.11149385695   -2.00000000000
      8.54330464500   13.32491942320   -1.11149163807   -2.00000000000
      8.54330400764  -13.32492114482   -1.11149295951   -2.00000000000
     -8.54329837208  -13.32492137051   -1.11149503385   -2.00000000000
    -13.01607409499    8.88327906392   -2.54840438198   -2.00000000000
     13.01608309487    8.88327906392   -2.54840438198   -2.00000000000
     13.01608309487   -8.88328215185   -2.54840438198   -2.00000000000
    -13.01607409499   -8.88328215185   -2.54840438198   -2.00000000000
     -9.76206201519    2.96109253364  -12.31152040860   -2.00000000000
      9.76205587721    2.96109253364  -12.31152040860   -2.00000000000
      9.76205587721   -2.96109453828  -12.31152040860   -2.00000000000
     -9.76206201519   -2.96109453828  -12.31152040860   -2.00000000000
     -5.23595093628   10.36382637355  -11.03942897843   -2.00000000000
      5.23594479830   10.36382637355  -11.03942897843   -2.00000000000
      5.23594479830  -10.36382837819  -11.03942897843   -2.00000000000
     -5.23595093628  -10.36382837819  -11.03942897843   -2.00000000000
     -4.52611414790   13.32491990951   -7.78540932970   -2.00000000000
      4.52610800992   13.32491990951   -7.78540932970   -2.00000000000
      4.52610800992  -13.32492191415   -7.78540932970   -2.00000000000
     -4.52611414790  -13.32492191415   -7.78540932970   -2.00000000000
     -7.80910734197   13.32492014998   -4.51644966155   -2.00000000000
      7.80913033182   13.32492005398   -4.51645509582   -2.00000000000
      7.80913025419  -13.32492235598   -4.51645492343   -2.00000000000
     -7.80910728680  -13.32492219455   -4.51644946585   -2.00000000000
     -0.00000306899    7.40273283758  -14.29344862716    4.00000000000
     -0.00000306899   -7.40273484223  -14.29344862716    4.00000000000
    -13.01608166392    2.96109253364   -9.05750075987   -2.00000000000
     13.01607552594    2.96109253364   -9.05750075987   -2.00000000000
     13.01607552594   -2.96109453828   -9.05750075987   -2.00000000000
    -13.01608166392   -2.96109453828   -9.05750075987   -2.00000000000
     -6.50803967498   14.80546569418   -0.00000271770   -2.00000000000
      6.50803891995   14.80546569418   -0.00000271770   -2.00000000000
      6.50803891995  -14.80546966545   -0.00000271770   -2.00000000000
     -6.50803967498  -14.80546966545   -0.00000271770   -2.00000000000
     -0.00000306899   14.80546667749   -6.51331789952   -2.00000000000
     -0.00000306899  -14.80546868213   -6.51331789952   -2.00000000000
    -11.74399023374    1.48054576566  -11.03942897843   -2.00000000000
     11.74398409577    1.48054576566  -11.03942897843   -2.00000000000
     11.74398409577   -1.48054777030  -11.03942897843   -2.00000000000
    -11.74399023374   -1.48054777030  -11.03942897843   -2.00000000000
     -0.00000306899   11.84437314153  -11.03942897843    4.00000000000
     -0.00000306899  -11.84437514617  -11.03942897843    4.00000000000
     -1.98193128755    7.40273283758  -14.29344862716   -2.00000000000
      1.98192514957    7.40273283758  -14.29344862716   -2.00000000000
      1.98192514957   -7.40273484223  -14.29344862716   -2.00000000000
     -1.98193128755   -7.40273484223  -14.29344862716   -2.00000000000
     -3.25401413420   14.80546689955   -5.78839415273   -2.00000000000
      3.25402516327   14.80546689955   -5.78839415273   -2.00000000000
      3.25402516327  -14.80546846008   -5.78839415273   -2.00000000000
     -3.25401413420  -14.80546846008   -5.78839415273   -2.00000000000
     -6.50804236645   11.84437314153   -9.05750075987   -2.00000000000
      6.50803622848   11.84437314153   -9.05750075987   -2.00000000000
      6.50803622848  -11.84437514617   -9.05750075987   -2.00000000000
     -6.50804236645  -11.84437514617   -9.05750075987   -2.00000000000
    -11.71498763820   10.36382593172   -4.51645492343   -2.00000000000
     11.71501060560   10.36382609315   -4.51644946585   -2.00000000000
     11.71501055042  -10.36382813772   -4.51644966155   -2.00000000000
    -11.71498756057  -10.36382823372   -4.51645509582   -2.00000000000
      0.00000552101   16.28600809192   -1.06892138720    4.00000000000
      0.00000536997  -16.28600971878   -1.06892606631    4.00000000000
     -6.50804236645    4.44163930162  -14.29344862716    4.00000000000
      6.50803622848    4.44163930162  -14.29344862716    4.00000000000
      6.50803622848   -4.44164130627  -14.29344862716    4.00000000000
     -6.50804236645   -4.44164130627  -14.29344862716    4.00000000000
     16.27010178684   -0.00000112036   -1.42716202606    4.00000000000
    -16.27009470048   -0.00000112036   -1.42716202606    4.00000000000
     13.01602653134    8.88328008829   -4.41288206312    4.00000000000
     13.01602653134   -8.88328112748   -4.41288206312    4.00000000000
    -13.01613065852    8.88328008829   -4.41288206312    4.00000000000
    -13.01613065852   -8.88328112748   -4.41288206312    4.00000000000
     -6.50803479753   14.80546613585   -2.54840438198   -2.00000000000
      6.50804379741   14.80546613585   -2.54840438198   -2.00000000000
      6.50804379741  -14.80546922378   -2.54840438198   -2.00000000000
     -6.50803479753  -14.80546922378   -2.54840438198   -2.00000000000
     -9.76205358197   11.84437307286   -5.78839374873   -2.00000000000
      9.76206431043   11.84437307286   -5.78839374873   -2.00000000000
      9.76206431043  -11.84437521484   -5.78839374873   -2.00000000000
     -9.76205358197  -11.84437521484   -5.78839374873   -2.00000000000
     -9.76206201519    8.88327960557   -9.76733754826   -2.00000000000
      9.76205587721    8.88327960557   -9.76733754826   -2.00000000000
      9.76205587721   -8.88328161021   -9.76733754826   -2.00000000000
     -9.76206201519   -8.88328161021   -9.76733754826   -2.00000000000
     -2.03525907462   16.28601398911   -1.11149503385   -2.00000000000
      2.03526471018   16.28601421481   -1.11149295951   -2.00000000000
      2.03526534753  -16.28601593642   -1.11149163807   -2.00000000000
     -2.03525914147  -16.28601603212   -1.11149385695   -2.00000000000
     -9.76206201519    7.40273283758  -11.03942897843    4.00000000000
      9.76205587721    7.40273283758  -11.03942897843    4.00000000000
      9.76205587721   -7.40273484223  -11.03942897843    4.00000000000
     -9.76206201519   -7.40273484223  -11.03942897843    4.00000000000
     16.27010462923   -0.00000063665   -3.23990501486   -2.00000000000
    -16.27009185810   -0.00000063665   -3.23990501486   -2.00000000000
      3.25401657974   -0.00000100232  -16.27537684572   -2.00000000000
     -3.25402271772   -0.00000100232  -16.27537684572   -2.00000000000
    -16.27009527782    2.96109302555   -1.42716235830    4.00000000000
     16.27010120950    2.96109302555   -1.42716235830    4.00000000000
     16.27010120950   -2.96109404638   -1.42716235830    4.00000000000
    -16.27009527782   -2.96109404638   -1.42716235830    4.00000000000
     -0.00000306899    5.92218606960  -15.56554005734   -2.00000000000
     -0.00000306899   -5.92218807425  -15.56554005734   -2.00000000000
    -13.01607307392   10.36382101999   -1.06892138720    4.00000000000
     13.01608411594   10.36382101999   -1.06892138720    4.00000000000
     13.01608396490  -10.36382264685   -1.06892606631    4.00000000000
    -13.01607322496  -10.36382264685   -1.06892606631    4.00000000000
     -8.48997058501    1.48054576566  -14.29344862716   -2.00000000000
      8.48996444703    1.48054576566  -14.29344862716   -2.00000000000
      8.48996444703   -1.48054777030  -14.29344862716   -2.00000000000
     -8.48997058501   -1.48054777030  -14.29344862716   -2.00000000000
    -11.74399023374    4.44163930162  -11.03942897843   -2.00000000000
     11.74398409577    4.44163930162  -11.03942897843   -2.00000000000
     11.74398409577   -4.44164130627  -11.03942897843   -2.00000000000
    -11.74399023374   -4.44164130627  -11.03942897843   -2.00000000000
     -4.52611414790    7.40273283758  -14.29344862716   -2.00000000000
      4.52610800992    7.40273283758  -14.29344862716   -2.00000000000
      4.52610800992   -7.40273484223  -14.29344862716   -2.00000000000
     -4.52611414790   -7.40273484223  -14.29344862716   -2.00000000000
    -14.31714663944    7.40273307806   -4.51644966155   -2.00000000000
     14.31716962929    7.40273298205   -4.51645509582   -2.00000000000
     14.31716955166   -7.40273528405   -4.51645492343   -2.00000000000
    -14.31714658426   -7.40273512263   -4.51644946585   -2.00000000000
     -6.50804236645   13.32491990951   -7.78540932970    4.00000000000
      6.50803622848   13.32491990951   -7.78540932970    4.00000000000
      6.50803622848  -13.32492191415   -7.78540932970    4.00000000000
     -6.50804236645  -13.32492191415   -7.78540932970    4.00000000000
     -6.50809136106   14.80546716022   -4.41288206312    4.00000000000
      6.50798723387   14.80546716022   -4.41288206312    4.00000000000
      6.50798723387  -14.80546819941   -4.41288206312    4.00000000000
     -6.50809136106  -14.80546819941   -4.41288206312    4.00000000000
     -9.76206201519    5.92218606960  -12.31152040860   -2.00000000000
      9.76205587721    5.92218606960  -12.31152040860   -2.00000000000
      9.76205587721   -5.92218807425  -12.31152040860   -2.00000000000
     -9.76206201519   -5.92218807425  -12.31152040860   -2.00000000000
    -15.05133773640    7.40273225558   -1.11149385695   -2.00000000000
     15.05134394246    7.40273235128   -1.11149163807   -2.00000000000
     15.05134330511   -7.40273407290   -1.11149295951   -2.00000000000
    -15.05133766955   -7.40273429859   -1.11149503385   -2.00000000000
    -16.27009166350    2.96109209923   -3.23990596489   -2.00000000000
     16.27010482383    2.96109209923   -3.23990596489   -2.00000000000
     16.27010482383   -2.96109497270   -3.23990596489   -2.00000000000
    -16.27009166350   -2.96109497270   -3.23990596489   -2.00000000000
     -3.25402271772    2.96109253364  -16.27537684572   -2.00000000000
      3.25401657974    2.96109253364  -16.27537684572   -2.00000000000
      3.25401657974   -2.96109453828  -16.27537684572   -2.00000000000
     -3.25402271772   -2.96109453828  -16.27537684572   -2.00000000000
      6.50803622848   -0.00000100232  -15.56554005734   -2.00000000000
     -6.50804236645   -0.00000100232  -15.56554005734   -2.00000000000
    -13.01608166392    7.40273283758   -7.78540932970    4.00000000000
     13.01607552594    7.40273283758   -7.78540932970    4.00000000000
     13.01607552594   -7.40273484223   -7.78540932970    4.00000000000
    -13.01608166392   -7.40273484223   -7.78540932970    4.00000000000
     -4.47277458729   16.28601421481   -1.11149295951   -2.00000000000
      4.47278022285   16.28601398911   -1.11149503385   -2.00000000000
      4.47278015600  -16.28601603212   -1.11149385695   -2.00000000000
     -4.47277394994  -16.28601593642   -1.11149163807   -2.00000000000
    -13.01608166392    5.92218606960   -9.05750075987   -2.00000000000
     13.01607552594    5.92218606960   -9.05750075987   -2.00000000000
     13.01607552594   -5.92218807425   -9.05750075987   -2.00000000000
    -13.01608166392   -5.92218807425   -9.05750075987   -2.00000000000
     -1.30106798933   16.28601316507   -4.51644946585   -2.00000000000
      1.30109095673   16.28601300365   -4.51645492343   -2.00000000000
      1.30109103436  -16.28601530565   -4.51645509582   -2.00000000000
     -1.30106804451  -16.28601520964   -4.51644966155   -2.00000000000
    -14.99800988248    1.48054576566   -7.78540932970   -2.00000000000
     14.99800374450    1.48054576566   -7.78540932970   -2.00000000000
     14.99800374450   -1.48054777030   -7.78540932970   -2.00000000000
    -14.99800988248   -1.48054777030   -7.78540932970   -2.00000000000
     16.27003074655    1.48054533538   -4.59991327640    4.00000000000
     16.27003055074   -1.48054722422   -4.59991284715    4.00000000000
    -16.27016574078    1.48054533538   -4.59991327640    4.00000000000
    -16.27016593658   -1.48054722422   -4.59991284715    4.00000000000
    -11.03415344536   10.36382637355   -7.78540932970   -2.00000000000
     11.03414730738   10.36382637355   -7.78540932970   -2.00000000000
[...]
    374.87 MB is the minimal memory requirement for (T)
    253.43 MB is the minimal memory requirement for CCSD
 
 MP2 correlation energy [au]:        -1.060158931299
 
 LMP2 domain correlation energy contribution [au]:       -0.077465468933
 
 CPU time [min]:  1078.914                   Wall time [min]:    15.274
 
 
 Starting CCSD iterations...
 
                     Residual norm       Correlation Energy
 Iteration  1        0.303698312903       -1.004341769749
 Iteration  2        0.171479045109       -1.045731591717
 Iteration  3        0.053122945185       -1.055866759990
 Iteration  4        0.021333194796       -1.057368468205
 Iteration  5        0.010457437730       -1.057026939991
 Iteration  6        0.005360626634       -1.057172859027
 Iteration  7        0.002791586438       -1.057253653196
 Iteration  8        0.001728405050       -1.057220886594
 Iteration  9        0.001294252560       -1.057232092892
 Iteration 10        0.000888810141       -1.057262116410
 Iteration 11        0.000566061215       -1.057250169231
 Iteration 12        0.000309724438       -1.057242270433
 Iteration 13        0.000159405068       -1.057244213948
 Iteration 14        0.000075097179       -1.057244571372
 
 CCSD iteration has converged in 14 steps.
      836.38 MB memory was utilized by CCSD
 
 T1 diagnostic:      2.463E-02            D1 diagnostic:      1.301E-01
 
 Warning: large CCSD amplitude found
 Largest T1 amplitude: -8.15E-02
 Largest T2 amplitude: -2.83E-01
 
 CCSD correlation energy [au]:          -0.073840324149
 
 CPU time [min]:  1091.234                   Wall time [min]:    15.454
 
 Calculation of (T) correction...
 
 Laplace threshold, nquadmin:  1.00E-03   4
 Number of quadrature points:    4
 
      679.23 MB memory is utilized for (T)

 0%       25%       50%       75%       100%
 |---------|---------|---------|---------| 
 
 (T) correction [au]:                   -0.005138734949
 CCSD(T) correlation energy [au]:       -0.078979059098
 
 CPU time [min]:  1111.073                   Wall time [min]:    15.741
 
 MO:    34
 Number of atoms in domain:      12
 Number of atomic orbitals:     438
 Number of atoms for local DF:   12
 Number of fitting functions:  1192 (100.00%)
 Warning: drop high-lying PAOs                     1
 Number of occupied orbitals:    34
 Number of virtual  orbitals:   373
 Number of Cholesky vectors:      8
 MP2 energy in ED [au]:          -0.070393072732
 Number of occupied LNOs:        23  (67.65%)
 Number of virtual  LNOs:       101  (27.08%)
 avg/min projected vLNO norm    1.0000E+00    9.9999E-01
 Number of Cholesky vectors:      6
 MP2 energy in LIS [au]:         -0.070235271349
 Correction for frozen LNO [au]: -0.000157801383     (0.224%)
 Number of NAFs:                351  (29.45%)
 CPU time [min]:  1124.059                   Wall time [min]:    15.917
 

 Direct DF-CCSD(T) calculation
 
 Convergence criterion:  1.0E-05
 
 Number of occupied/virtual/auxiliary orbitals:    23   101   351
    259.38 MB is the minimal memory requirement for (T)
    173.39 MB is the minimal memory requirement for CCSD
 
 MP2 correlation energy [au]:        -0.964528695223
 
 LMP2 domain correlation energy contribution [au]:       -0.070233075853
 
 CPU time [min]:  1124.243                   Wall time [min]:    15.920
 
 
 Starting CCSD iterations...
 
                     Residual norm       Correlation Energy
 Iteration  1        0.285740960529       -0.924317402067
 Iteration  2        0.160371067712       -0.959582654454
 Iteration  3        0.051298491202       -0.970652121483
 Iteration  4        0.020014417146       -0.971488223392
 Iteration  5        0.009980201861       -0.971135115164
 Iteration  6        0.004841227589       -0.971240186537
 Iteration  7        0.002520482689       -0.971298031535
 Iteration  8        0.001710951569       -0.971273373862
 Iteration  9        0.001356253678       -0.971299560819
 Iteration 10        0.000838881515       -0.971325086491
 Iteration 11        0.000490957605       -0.971310188961
 Iteration 12        0.000244849187       -0.971306273698
 Iteration 13        0.000129892832       -0.971308806476
 Iteration 14        0.000075876184       -0.971308460562
 
 CCSD iteration has converged in 14 steps.
      558.81 MB memory was utilized by CCSD
 
 T1 diagnostic:      2.482E-02            D1 diagnostic:      1.192E-01
 
 Warning: large CCSD amplitude found
 Largest T1 amplitude: -5.01E-02
 Largest T2 amplitude: -2.98E-01
 
 CCSD correlation energy [au]:          -0.068317597789
 
 CPU time [min]:  1131.363                   Wall time [min]:    16.024
 
 Calculation of (T) correction...
 
 Laplace threshold, nquadmin:  1.00E-03   4
 Number of quadrature points:    4
 
      431.16 MB memory is utilized for (T)

 0%       25%       50%       75%       100%
 |---------|---------|---------|---------| 
 
 (T) correction [au]:                   -0.003866706202
 CCSD(T) correlation energy [au]:       -0.072184303991
 
 CPU time [min]:  1140.483                   Wall time [min]:    16.155
 
 MO:    35
 Number of atoms in domain:      12
 Number of atomic orbitals:     438
 Number of atoms for local DF:   12
 Number of fitting functions:  1192 (100.00%)
 Warning: drop high-lying PAOs                     1
 Number of occupied orbitals:    34
 Number of virtual  orbitals:   373
 Number of Cholesky vectors:      8
 MP2 energy in ED [au]:          -0.070397591413
 Number of occupied LNOs:        23  (67.65%)
 Number of virtual  LNOs:       101  (27.08%)
 avg/min projected vLNO norm    1.0000E+00    1.0000E+00
 Number of Cholesky vectors:      6
 MP2 energy in LIS [au]:         -0.070233499097
 Correction for frozen LNO [au]: -0.000164092316     (0.233%)
 Number of NAFs:                351  (29.45%)
 CPU time [min]:  1153.425                   Wall time [min]:    16.330
 

 Direct DF-CCSD(T) calculation
 
 Convergence criterion:  1.0E-05
 
 Number of occupied/virtual/auxiliary orbitals:    23   101   351
    259.38 MB is the minimal memory requirement for (T)
    173.39 MB is the minimal memory requirement for CCSD
 
 MP2 correlation energy [au]:        -0.964518545248
 
 LMP2 domain correlation energy contribution [au]:       -0.070231307872
 
 CPU time [min]:  1153.622                   Wall time [min]:    16.333
 
 
 Starting CCSD iterations...
 
                     Residual norm       Correlation Energy
 Iteration  1        0.285769472537       -0.924269391804
 Iteration  2        0.160388895273       -0.959548586237
 Iteration  3        0.051285081857       -0.970617133983
 Iteration  4        0.020016426928       -0.971452220695
 Iteration  5        0.009980004687       -0.971099244266
 Iteration  6        0.004837660234       -0.971204433342
 Iteration  7        0.002511624695       -0.971262132054
 Iteration  8        0.001701755219       -0.971237532453
 Iteration  9        0.001348574043       -0.971263392026
 Iteration 10        0.000835708144       -0.971288759988
 Iteration 11        0.000490106538       -0.971273899798
 Iteration 12        0.000244711429       -0.971269968582
 Iteration 13        0.000129845143       -0.971272507874
 Iteration 14        0.000075852497       -0.971272164517
 
 CCSD iteration has converged in 14 steps.
      558.81 MB memory was utilized by CCSD
 
 T1 diagnostic:      2.481E-02            D1 diagnostic:      1.190E-01
 
 Warning: large CCSD amplitude found
 Largest T1 amplitude:  5.00E-02
 Largest T2 amplitude: -2.98E-01
 
 CCSD correlation energy [au]:          -0.068314652704
 
 CPU time [min]:  1160.789                   Wall time [min]:    16.437
 
 Calculation of (T) correction...
 
 Laplace threshold, nquadmin:  1.00E-03   4
 Number of quadrature points:    4
 
      431.16 MB memory is utilized for (T)

 0%       25%       50%       75%       100%
 |---------|---------|---------|---------| 
 
 (T) correction [au]:                   -0.003865293133
 CCSD(T) correlation energy [au]:       -0.072179945838
 
 CPU time [min]:  1169.970                   Wall time [min]:    16.568
 
 MO:    36
 Number of atoms in domain:      12
 Number of atomic orbitals:     438
 Number of atoms for local DF:   12
 Number of fitting functions:  1192 (100.00%)
 Warning: drop high-lying PAOs                     1
 Number of occupied orbitals:    37
 Number of virtual  orbitals:   373
 Number of Cholesky vectors:      8
 MP2 energy in ED [au]:          -0.073561333410
 Number of occupied LNOs:        34  (91.89%)
 Number of virtual  LNOs:       139  (37.27%)
 avg/min projected vLNO norm    1.0000E+00    1.0000E+00
 Number of Cholesky vectors:      6
 MP2 energy in LIS [au]:         -0.073352031635
 Correction for frozen LNO [au]: -0.000209301774     (0.285%)
 Number of NAFs:                524  (43.96%)
 CPU time [min]:  1186.163                   Wall time [min]:    16.790
 

 Direct DF-CCSD(T) calculation
 
 Convergence criterion:  1.0E-05
 
 Number of occupied/virtual/auxiliary orbitals:    34   139   524
    727.37 MB is the minimal memory requirement for (T)
    482.52 MB is the minimal memory requirement for CCSD
 
 MP2 correlation energy [au]:        -1.351718166386
 
 LMP2 domain correlation energy contribution [au]:       -0.073349107746
 
 CPU time [min]:  1186.663                   Wall time [min]:    16.800
 
 
 Starting CCSD iterations...
 
                     Residual norm       Correlation Energy
 Iteration  1        0.338074287326       -1.282875392127
 Iteration  2        0.186067662539       -1.336890804807
 Iteration  3        0.054972136155       -1.347829793753
 Iteration  4        0.021644821477       -1.349240557087
 Iteration  5        0.010301098507       -1.348740338348
 Iteration  6        0.005244283005       -1.348761324136
 Iteration  7        0.002688107581       -1.348809203187
 Iteration  8        0.001729226349       -1.348816125972
 Iteration  9        0.001287021178       -1.348807556682
 Iteration 10        0.000814683300       -1.348822080102
 Iteration 11        0.000452690242       -1.348821525059
 Iteration 12        0.000243064557       -1.348813606843
 Iteration 13        0.000134661125       -1.348811832506
 Iteration 14        0.000077442870       -1.348812492485
 
 CCSD iteration has converged in 14 steps.
     1877.89 MB memory was utilized by CCSD
 
 T1 diagnostic:      2.462E-02            D1 diagnostic:      1.235E-01
 
 Warning: large CCSD amplitude found
 Largest T1 amplitude: -8.10E-02
 Largest T2 amplitude: -2.64E-01
 
 CCSD correlation energy [au]:          -0.071654552326
 
 CPU time [min]:  1216.345                   Wall time [min]:    17.242
 
 Calculation of (T) correction...
 
 Laplace threshold, nquadmin:  1.00E-03   4
 Number of quadrature points:    4
 
     1456.20 MB memory is utilized for (T)

 0%       25%       50%       75%       100%
 |---------|---------|---------|---------| 
 
 (T) correction [au]:                   -0.003747537776
 CCSD(T) correlation energy [au]:       -0.075402090103
 
 CPU time [min]:  1257.530                   Wall time [min]:    17.833
 
 MO:    37
 Number of atoms in domain:      12
 Number of atomic orbitals:     438
 Number of atoms for local DF:   12
 Number of fitting functions:  1192 (100.00%)
 Warning: drop high-lying PAOs                     1
 Number of occupied orbitals:    37
 Number of virtual  orbitals:   373
 Number of Cholesky vectors:      8
 MP2 energy in ED [au]:          -0.090422258905
 Number of occupied LNOs:        37 (100.00%)
 Number of virtual  LNOs:       222  (59.52%)
 avg/min projected vLNO norm    1.0000E+00    9.9999E-01
 Number of Cholesky vectors:      6
 MP2 energy in LIS [au]:         -0.090195970553
 Correction for frozen LNO [au]: -0.000226288352     (0.250%)
 Number of NAFs:                792  (66.44%)
 CPU time [min]:  1279.501                   Wall time [min]:    18.157
 

 Direct DF-CCSD(T) calculation
 
 Convergence criterion:  1.0E-05
 
 Number of occupied/virtual/auxiliary orbitals:    37   222   792
   2436.18 MB is the minimal memory requirement for (T)
   1419.50 MB is the minimal memory requirement for CCSD
 
 MP2 correlation energy [au]:        -1.970200928946
 
 LMP2 domain correlation energy contribution [au]:       -0.090166162069
 
 CPU time [min]:  1280.188                   Wall time [min]:    18.174
 
 
 Starting CCSD iterations...
 
                     Residual norm       Correlation Energy
 Iteration  1        0.400803053000       -1.865469702152
 Iteration  2        0.233009489358       -1.936924220672
 Iteration  3        0.066032762863       -1.953085821420
 Iteration  4        0.023560015527       -1.955015510184
 Iteration  5        0.011129995996       -1.954041738596
 Iteration  6        0.005729955217       -1.953821980280
 Iteration  7        0.002984086474       -1.954044814326
 Iteration  8        0.001889910589       -1.954038603495
 Iteration  9        0.001444901510       -1.953984162294
 Iteration 10        0.001065105852       -1.954028569240
 Iteration 11        0.000690843106       -1.954058909937
 Iteration 12        0.000394853253       -1.954039084189
 Iteration 13        0.000201299654       -1.954024048075
 Iteration 14        0.000113312799       -1.954026682968
 Iteration 15        0.000066934582       -1.954029165078
 
 CCSD iteration has converged in 15 steps.
    10650.18 MB memory was utilized by CCSD
 
 T1 diagnostic:      2.566E-02            D1 diagnostic:      1.217E-01
 
 Warning: large CCSD amplitude found
 Largest T1 amplitude: -7.08E-02
 Largest T2 amplitude: -2.55E-01
 
 CCSD correlation energy [au]:          -0.089239977650
 
 CPU time [min]:  1396.800                   Wall time [min]:    19.937
 
 Calculation of (T) correction...
 
 Laplace threshold, nquadmin:  1.00E-03   4
 Number of quadrature points:    4
 
     5519.13 MB memory is utilized for (T)

 0%       25%       50%       75%       100%
 |---------|---------|---------|---------| 
 
 (T) correction [au]:                   -0.011551048794
 CCSD(T) correlation energy [au]:       -0.100791026444
 
 CPU time [min]:  1576.389                   Wall time [min]:    22.605
 
 **********************************************************************
 Dimensions of the extended domains:    Minimum / Average / Maximum
 
 Number of atoms in domain:                  12      12.0        12
 Number of atomic orbitals:                 438     438.0       438
 Number of fitting functions:              1116    1150.9      1192
 Number of occupied localized MOs:           29      35.2        37
 Number of PAOs:                            361     366.5       373
 Number of occupied LNOs:                    19      25.2        37
 Number of virtual  LNOs:                    82     104.5       222
 Number of NAFs:                            286     373.9       792
 
 **********************************************************************
 Distant (and weak) pair contributions, corrections
 
 Sum of pair energies [au]:                    -0.000064352463    (0.003%)
 Sum of energy corrections [au]:               -0.006029315393    (0.238%)
 Pair energies + LNO corrections [au]:         -0.006093667856
 Sum of LMP2 contributions [au]:               -2.529369706845
 
 **********************************************************************
  Time of manipulations in the EDs:      max CPU/Wall [s]  all CPU/Wall [min]
 
 PD construction & multipole pair E     426.42     6.22     7.11     0.10
 Construct MO basis of the ED            17.73     0.24     8.20     0.11
 (mu,nu|P) evaluation & trf 2 (ai|P)    214.22     2.84   119.84     1.59
 Evaluate MP2 energy of the ED           13.37     0.18     6.17     0.08
 Transformations to the LNO basis        16.87     0.23     6.81     0.09
 Build W_PQ (Jai or Jpi part)             5.59     0.09     1.44     0.02
 Evaluate MP2 energy of the LIS           1.79     0.02     0.27     0.00
 (mu,nu|P) evaluation & trf 2 J(abQ)   1032.23    15.52   318.91     4.38
 Total of the above for all EDs        1301.80    19.11   461.63     6.27
 
 **********************************************************************
 Maximum memory requirement [MB]:       
 
 PD construction & multipole pair E         43.2
 AO integral evaluation in the EDs       12998.5
 (mu,nu|P) evaluation & trf 2 (aI|P)     14010.3
 Evaluate MP2 energy in the EDs            375.6
 Transformation to the LNO basis           328.2
 (mu,nu|P) to Jab transformation         13232.7
 Evaluate MP2 energy in the LIS            351.4
 Minimum requirement for LIS CCSD         1419.5
 Actually allocated  for LIS CCSD        10650.2
 Minimum requirement for LIS (T)          2436.2
 Actually allocated  for LIS (T)          5519.1
 
 ======================================================================
 ======================================================================
 
 
 
 ======================================================================
 ======================================================================
 
 Final local CC results:
 
 Minimum number of correlated electrons:        38       ( 51.4%)
 Maximum number of correlated electrons:        74       (100.0%)
 Average number of correlated electrons:        50.4     ( 68.2%)
 Minimum number of correlated orbitals:        101       ( 24.6%)
 Maximum number of correlated orbitals:        259       ( 63.0%)
 Average number of correlated orbitals:        129.7     ( 31.6%)
 
 CPU time for integral calculations [min]:                  5.818
 Wall time for integral calculations [min]:                 2.550
 
 CPU time for SCF calculation [min]:                       92.305
 Wall time for SCF calculation [min]:                       1.228
 
 CPU time for orbital localization [min]:                   0.336
 Wall time for orbital localization [min]:                  0.007
 
 CPU time for integral transformations [min]:             479.609
 Wall time for integral transformations [min]:              6.550
 
 Reference energy [au]:                                    -23270.628723103782
 
 LMP2 correlation energy [au]:                                 -2.529369706845
 Total LMP2 energy [au]:                                   -23273.158092810627
 
 Total MP2 correction for dropped NAFs [au]:                   -0.000103392732
 Total MP2 correction [au]:                                    -0.006197060588
 
 CPU time for CCSD calculations [min]:                    458.719
 Total CPU time for CCSD [min]:                          1036.788
 Wall time for CCSD calculations [min]:                     6.796
 Total wall time for CCSD [min]:                           17.133
 
 CCSD correlation energy [au]:                                 -2.499557159187
 Total CCSD energy [au]:                                   -23273.128280262968
 CCSD correlation energy + 0.5 MP2 corrections [au]:           -2.502655689481
 Total LNO-CCSD energy with MP2 corrections [au]:          -23273.131378793263
 
 CPU time for (T) corrections [min]:                      638.064
 Total CPU time for CCSD(T) [min]:                       1674.852
 Wall time for (T) corrections [min]:                       9.259
 Total wall time for CCSD(T) [min]:                        26.391
 
 Total (T) correlation energy contribution [au]:               -0.114213992157
 Total (T) correlation energy+0.5 MP2 correction [au]:         -0.117312522451
 CCSD(T) correlation energy [au]:                              -2.613771151344
 Total CCSD(T) energy [au]:                                -23273.242494255126
 CCSD(T) correlation energy + MP2 corrections [au]:            -2.619968211932
 Total LNO-CCSD(T) energy with MP2 corrections [au]:       -23273.248691315715
 
 ======================================================================
 ======================================================================
 
 ************************ 2022-02-05 09:44:57 *************************
                      Normal termination of mrcc.
 **********************************************************************
