 **********************************************************************
                          MRCC program system
 **********************************************************************
 
                              Written by
 Mihaly Kallay, Peter R. Nagy, David Mester, Zoltan Rolik, Gyula Samu,
   Jozsef Csontos, Jozsef Csoka, P. Bernat Szabo, Laszlo Gyevi-Nagy,
    Bence Hegely, Istvan Ladjanszki, Lorant Szegedy, Bence Ladoczki,
       Klara Petrov, Mate Farkas, Pal D. Mezei, and Adam Ganyecz
 
        Department of Physical Chemistry and Materials Science
            Budapest University of Technology and Economics
                  Budapest P.O.Box 91, H-1521 Hungary
 
                              www.mrcc.hu
 
                    Release date: February 22, 2020

 ************************ 2021-10-17 17:59:29 *************************
 Executing minp...

 Reading input from MINP...
 
 Input file:
 
calc=SCF
dft=PBE
scftype=rks
verbosity=3
mem=170GB
symm=off
unit=angs
scfiguess=small
scfmaxit=1000

charge=666
basis=special
def2-SVP
def2-SVP
def2-SVP
def2-SVP
def2-SVP
def2-SVP
def2-SVP
def2-SVP
def2-SVP
def2-SVP
def2-SVP
def2-SVP
def2-SVP
def2-SVP
def2-SVP
def2-SVP
def2-SVP
def2-SVP
def2-SVP
def2-SVP
def2-SVP
def2-SVP
def2-SVP
def2-SVP
def2-SVP
def2-SVP
def2-SVP
def2-SVP
def2-SVP
def2-SVP
def2-SVP
def2-SVP
def2-SVP
def2-SVP
def2-SVP
def2-SVP
def2-SVP
def2-SVP
def2-SVP
def2-SVP
def2-SVP
def2-SVP
def2-SVP
def2-SVP
def2-SVP
def2-SVP
def2-SVP
def2-SVP
def2-SVP
def2-SVP
def2-SVP
def2-SVP
def2-SVP
def2-SVP
def2-SVP
def2-SVP
def2-SVP
def2-SVP
def2-SVP
def2-SVP
def2-SVP
def2-SVP
def2-SVP
def2-SVP
def2-SVP
def2-SVP
def2-SVP
def2-SVP
def2-SVP
def2-SVP
def2-SVP
def2-SVP
def2-SVP
def2-SVP
def2-SVP
def2-SVP
def2-SVP
def2-SVP
def2-SVP
def2-SVP
def2-SVP
def2-SVP
def2-SVP
def2-SVP
def2-SVP
def2-SVP
def2-SVP
def2-SVP
def2-SVP
def2-SVP
def2-SVP
def2-SVP
def2-SVP
def2-SVP
def2-SVP
def2-SVP
def2-SVP
def2-SVP
def2-SVP
def2-SVP
def2-SVP
def2-SVP
def2-SVP
def2-SVP
def2-SVP
def2-SVP
def2-SVP
def2-SVP
def2-SVP
def2-SVP
def2-SVP
def2-SVP
def2-SVP
def2-SVP
def2-SVP
def2-SVP
def2-SVP
def2-SVP
def2-SVP
def2-SVP
def2-SVP
def2-SVP
def2-SVP
nothing
nothing
nothing
nothing
nothing
nothing
nothing
nothing
nothing
nothing
nothing
nothing
nothing
nothing
nothing
nothing
nothing
nothing
nothing
nothing
nothing
nothing
nothing
nothing
nothing
nothing
nothing
nothing
nothing
nothing
nothing
nothing
nothing
nothing
nothing
nothing
nothing
nothing
nothing
nothing
nothing
nothing
nothing
nothing
nothing
nothing
nothing
nothing
nothing
nothing
nothing
nothing
nothing
nothing
nothing
nothing
nothing
nothing
nothing
nothing
nothing
nothing
nothing
nothing
nothing
nothing
nothing
nothing
nothing
nothing
nothing
nothing
nothing
nothing
nothing
nothing
nothing
nothing
nothing
nothing
nothing
nothing
nothing
nothing
nothing
nothing
nothing
nothing
nothing
nothing
nothing
nothing
nothing
nothing
nothing
nothing
nothing
nothing
nothing
nothing
nothing
nothing
nothing
nothing
nothing
nothing
nothing
nothing
nothing
nothing
nothing
nothing
nothing
nothing
nothing
nothing
nothing
nothing
nothing
nothing
nothing
nothing
nothing
nothing
nothing
nothing
nothing
nothing
nothing
nothing
nothing
nothing
nothing
nothing
nothing
nothing
nothing
nothing
nothing
nothing
nothing
nothing
nothing
nothing
nothing
nothing
nothing
nothing
nothing
nothing
nothing
nothing
nothing
nothing
nothing
nothing
nothing
nothing
nothing
nothing
nothing
nothing
nothing
nothing
nothing
nothing
nothing
nothing
nothing
nothing
nothing
nothing
nothing
nothing
nothing
nothing
nothing
nothing
nothing
nothing
nothing
nothing
nothing
nothing
nothing
nothing
nothing
nothing
nothing
nothing
nothing
nothing
nothing
nothing
nothing
nothing
nothing
nothing
nothing
nothing
nothing
nothing
nothing
nothing
nothing
nothing
nothing
nothing
nothing
nothing
nothing
nothing
nothing
nothing
nothing
nothing
nothing
nothing
nothing
nothing
nothing
nothing
nothing
nothing
nothing
nothing
nothing
nothing
nothing
nothing
nothing
nothing
nothing
nothing
nothing
nothing
nothing
nothing
nothing
nothing
nothing
nothing
nothing
nothing
nothing
nothing
nothing
nothing
nothing
nothing
nothing
nothing
nothing
nothing
nothing
nothing
nothing
nothing
nothing
nothing
nothing
nothing
nothing
nothing
nothing
nothing
nothing
nothing
nothing
nothing
nothing
nothing
nothing
nothing
nothing
nothing
nothing
nothing
nothing
nothing
nothing
nothing
nothing
nothing
nothing
nothing
nothing
nothing
nothing
nothing
nothing
nothing
nothing
nothing
nothing
nothing
nothing
nothing
nothing
nothing
nothing
nothing
nothing
nothing
nothing
nothing
nothing
nothing
nothing
nothing
nothing
nothing
nothing
nothing
nothing
nothing
nothing
nothing
nothing
nothing
nothing
nothing
nothing
nothing
nothing
nothing
nothing
nothing
nothing
nothing
nothing
nothing
nothing
nothing
nothing
nothing
nothing
nothing
nothing
nothing
nothing
nothing
nothing
nothing
nothing
nothing
nothing
nothing
nothing
nothing
nothing
nothing
nothing
nothing
nothing
nothing
nothing
nothing
nothing
nothing
nothing
nothing
nothing
nothing
nothing
nothing
nothing
nothing
nothing
nothing
nothing
nothing
nothing
nothing

basis_sm=special
def2-SVP
def2-SVP
def2-SVP
def2-SVP
def2-SVP
def2-SVP
def2-SVP
def2-SVP
def2-SVP
def2-SVP
def2-SVP
def2-SVP
def2-SVP
def2-SVP
def2-SVP
def2-SVP
def2-SVP
def2-SVP
def2-SVP
def2-SVP
def2-SVP
def2-SVP
def2-SVP
def2-SVP
def2-SVP
def2-SVP
def2-SVP
def2-SVP
def2-SVP
def2-SVP
def2-SVP
def2-SVP
def2-SVP
def2-SVP
def2-SVP
def2-SVP
def2-SVP
def2-SVP
def2-SVP
def2-SVP
def2-SVP
def2-SVP
def2-SVP
def2-SVP
def2-SVP
def2-SVP
def2-SVP
def2-SVP
def2-SVP
def2-SVP
def2-SVP
def2-SVP
def2-SVP
def2-SVP
def2-SVP
def2-SVP
def2-SVP
def2-SVP
def2-SVP
def2-SVP
def2-SVP
def2-SVP
def2-SVP
def2-SVP
def2-SVP
def2-SVP
def2-SVP
def2-SVP
def2-SVP
def2-SVP
def2-SVP
def2-SVP
def2-SVP
def2-SVP
def2-SVP
def2-SVP
def2-SVP
def2-SVP
def2-SVP
def2-SVP
def2-SVP
def2-SVP
def2-SVP
def2-SVP
def2-SVP
def2-SVP
def2-SVP
def2-SVP
def2-SVP
def2-SVP
def2-SVP
def2-SVP
def2-SVP
def2-SVP
def2-SVP
def2-SVP
def2-SVP
def2-SVP
def2-SVP
def2-SVP
def2-SVP
def2-SVP
def2-SVP
def2-SVP
def2-SVP
def2-SVP
def2-SVP
def2-SVP
def2-SVP
def2-SVP
def2-SVP
def2-SVP
def2-SVP
def2-SVP
def2-SVP
def2-SVP
def2-SVP
def2-SVP
def2-SVP
def2-SVP
def2-SVP
def2-SVP
def2-SVP
nothing
nothing
nothing
nothing
nothing
nothing
nothing
nothing
nothing
nothing
nothing
nothing
nothing
nothing
nothing
nothing
nothing
nothing
nothing
nothing
nothing
nothing
nothing
nothing
nothing
nothing
nothing
nothing
nothing
nothing
nothing
nothing
nothing
nothing
nothing
nothing
nothing
nothing
nothing
nothing
nothing
nothing
nothing
nothing
nothing
nothing
nothing
nothing
nothing
nothing
nothing
nothing
nothing
nothing
nothing
nothing
nothing
nothing
nothing
nothing
nothing
nothing
nothing
nothing
nothing
nothing
nothing
nothing
nothing
nothing
nothing
nothing
nothing
nothing
nothing
nothing
nothing
nothing
nothing
nothing
nothing
nothing
nothing
nothing
nothing
nothing
nothing
nothing
nothing
nothing
nothing
nothing
nothing
nothing
nothing
nothing
nothing
nothing
nothing
nothing
nothing
nothing
nothing
nothing
nothing
nothing
nothing
nothing
nothing
nothing
nothing
nothing
nothing
nothing
nothing
nothing
nothing
nothing
nothing
nothing
nothing
nothing
nothing
nothing
nothing
nothing
nothing
nothing
nothing
nothing
nothing
nothing
nothing
nothing
nothing
nothing
nothing
nothing
nothing
nothing
nothing
nothing
nothing
nothing
nothing
nothing
nothing
nothing
nothing
nothing
nothing
nothing
nothing
nothing
nothing
nothing
nothing
nothing
nothing
nothing
nothing
nothing
nothing
nothing
nothing
nothing
nothing
nothing
nothing
nothing
nothing
nothing
nothing
nothing
nothing
nothing
nothing
nothing
nothing
nothing
nothing
nothing
nothing
nothing
nothing
nothing
nothing
nothing
nothing
nothing
nothing
nothing
nothing
nothing
nothing
nothing
nothing
nothing
nothing
nothing
nothing
nothing
nothing
nothing
nothing
nothing
nothing
nothing
nothing
nothing
nothing
nothing
nothing
nothing
nothing
nothing
nothing
nothing
nothing
nothing
nothing
nothing
nothing
nothing
nothing
nothing
nothing
nothing
nothing
nothing
nothing
nothing
nothing
nothing
nothing
nothing
nothing
nothing
nothing
nothing
nothing
nothing
nothing
nothing
nothing
nothing
nothing
nothing
nothing
nothing
nothing
nothing
nothing
nothing
nothing
nothing
nothing
nothing
nothing
nothing
nothing
nothing
nothing
nothing
nothing
nothing
nothing
nothing
nothing
nothing
nothing
nothing
nothing
nothing
nothing
nothing
nothing
nothing
nothing
nothing
nothing
nothing
nothing
nothing
nothing
nothing
nothing
nothing
nothing
nothing
nothing
nothing
nothing
nothing
nothing
nothing
nothing
nothing
nothing
nothing
nothing
nothing
nothing
nothing
nothing
nothing
nothing
nothing
nothing
nothing
nothing
nothing
nothing
nothing
nothing
nothing
nothing
nothing
nothing
nothing
nothing
nothing
nothing
nothing
nothing
nothing
nothing
nothing
nothing
nothing
nothing
nothing
nothing
nothing
nothing
nothing
nothing
nothing
nothing
nothing
nothing
nothing
nothing
nothing
nothing
nothing
nothing
nothing
nothing
nothing
nothing
nothing
nothing
nothing
nothing
nothing
nothing
nothing
nothing
nothing
nothing
nothing
nothing
nothing
nothing
nothing
nothing
nothing
nothing
nothing
nothing
nothing
nothing
nothing

dfbasis_scf=special
def2-QZVPP-RI-JK
def2-QZVPP-RI-JK
def2-QZVPP-RI-JK
def2-QZVPP-RI-JK
def2-QZVPP-RI-JK
def2-QZVPP-RI-JK
def2-QZVPP-RI-JK
def2-QZVPP-RI-JK
def2-QZVPP-RI-JK
def2-QZVPP-RI-JK
def2-QZVPP-RI-JK
def2-QZVPP-RI-JK
def2-QZVPP-RI-JK
def2-QZVPP-RI-JK
def2-QZVPP-RI-JK
def2-QZVPP-RI-JK
def2-QZVPP-RI-JK
def2-QZVPP-RI-JK
def2-QZVPP-RI-JK
def2-QZVPP-RI-JK
def2-QZVPP-RI-JK
def2-QZVPP-RI-JK
def2-QZVPP-RI-JK
def2-QZVPP-RI-JK
def2-QZVPP-RI-JK
def2-QZVPP-RI-JK
def2-QZVPP-RI-JK
def2-QZVPP-RI-JK
def2-QZVPP-RI-JK
def2-QZVPP-RI-JK
def2-QZVPP-RI-JK
def2-QZVPP-RI-JK
def2-QZVPP-RI-JK
def2-QZVPP-RI-JK
def2-QZVPP-RI-JK
def2-QZVPP-RI-JK
def2-QZVPP-RI-JK
def2-QZVPP-RI-JK
def2-QZVPP-RI-JK
def2-QZVPP-RI-JK
def2-QZVPP-RI-JK
def2-QZVPP-RI-JK
def2-QZVPP-RI-JK
def2-QZVPP-RI-JK
def2-QZVPP-RI-JK
def2-QZVPP-RI-JK
def2-QZVPP-RI-JK
def2-QZVPP-RI-JK
def2-QZVPP-RI-JK
def2-QZVPP-RI-JK
def2-QZVPP-RI-JK
def2-QZVPP-RI-JK
def2-QZVPP-RI-JK
def2-QZVPP-RI-JK
def2-QZVPP-RI-JK
def2-QZVPP-RI-JK
def2-QZVPP-RI-JK
def2-QZVPP-RI-JK
def2-QZVPP-RI-JK
def2-QZVPP-RI-JK
def2-QZVPP-RI-JK
def2-QZVPP-RI-JK
def2-QZVPP-RI-JK
def2-QZVPP-RI-JK
def2-QZVPP-RI-JK
def2-QZVPP-RI-JK
def2-QZVPP-RI-JK
def2-QZVPP-RI-JK
def2-QZVPP-RI-JK
def2-QZVPP-RI-JK
def2-QZVPP-RI-JK
def2-QZVPP-RI-JK
def2-QZVPP-RI-JK
def2-QZVPP-RI-JK
def2-QZVPP-RI-JK
def2-QZVPP-RI-JK
def2-QZVPP-RI-JK
def2-QZVPP-RI-JK
def2-QZVPP-RI-JK
def2-QZVPP-RI-JK
def2-QZVPP-RI-JK
def2-QZVPP-RI-JK
def2-QZVPP-RI-JK
def2-QZVPP-RI-JK
def2-QZVPP-RI-JK
def2-QZVPP-RI-JK
def2-QZVPP-RI-JK
def2-QZVPP-RI-JK
def2-QZVPP-RI-JK
def2-QZVPP-RI-JK
def2-QZVPP-RI-JK
def2-QZVPP-RI-JK
def2-QZVPP-RI-JK
def2-QZVPP-RI-JK
def2-QZVPP-RI-JK
def2-QZVPP-RI-JK
def2-QZVPP-RI-JK
def2-QZVPP-RI-JK
def2-QZVPP-RI-JK
def2-QZVPP-RI-JK
def2-QZVPP-RI-JK
def2-QZVPP-RI-JK
def2-QZVPP-RI-JK
def2-QZVPP-RI-JK
def2-QZVPP-RI-JK
def2-QZVPP-RI-JK
def2-QZVPP-RI-JK
def2-QZVPP-RI-JK
def2-QZVPP-RI-JK
def2-QZVPP-RI-JK
def2-QZVPP-RI-JK
def2-QZVPP-RI-JK
def2-QZVPP-RI-JK
def2-QZVPP-RI-JK
def2-QZVPP-RI-JK
def2-QZVPP-RI-JK
def2-QZVPP-RI-JK
def2-QZVPP-RI-JK
def2-QZVPP-RI-JK
def2-QZVPP-RI-JK
def2-QZVPP-RI-JK
def2-QZVPP-RI-JK
def2-QZVPP-RI-JK
nothing
nothing
nothing
nothing
nothing
nothing
nothing
nothing
nothing
nothing
nothing
nothing
nothing
nothing
nothing
nothing
nothing
nothing
nothing
nothing
nothing
nothing
nothing
nothing
nothing
nothing
nothing
nothing
nothing
nothing
nothing
nothing
nothing
nothing
nothing
nothing
nothing
nothing
nothing
nothing
nothing
nothing
nothing
nothing
nothing
nothing
nothing
nothing
nothing
nothing
nothing
nothing
nothing
nothing
nothing
nothing
nothing
nothing
nothing
nothing
nothing
nothing
nothing
nothing
nothing
nothing
nothing
nothing
nothing
nothing
nothing
nothing
nothing
nothing
nothing
nothing
nothing
nothing
nothing
nothing
nothing
nothing
nothing
nothing
nothing
nothing
nothing
nothing
nothing
nothing
nothing
nothing
nothing
nothing
nothing
nothing
nothing
nothing
nothing
nothing
nothing
nothing
nothing
nothing
nothing
nothing
nothing
nothing
nothing
nothing
nothing
nothing
nothing
nothing
nothing
nothing
nothing
nothing
nothing
nothing
nothing
nothing
nothing
nothing
nothing
nothing
nothing
nothing
nothing
nothing
nothing
nothing
nothing
nothing
nothing
nothing
nothing
nothing
nothing
nothing
nothing
nothing
nothing
nothing
nothing
nothing
nothing
nothing
nothing
nothing
nothing
nothing
nothing
nothing
nothing
nothing
nothing
nothing
nothing
nothing
nothing
nothing
nothing
nothing
nothing
nothing
nothing
nothing
nothing
nothing
nothing
nothing
nothing
nothing
nothing
nothing
nothing
nothing
nothing
nothing
nothing
nothing
nothing
nothing
nothing
nothing
nothing
nothing
nothing
nothing
nothing
nothing
nothing
nothing
nothing
nothing
nothing
nothing
nothing
nothing
nothing
nothing
nothing
nothing
nothing
nothing
nothing
nothing
nothing
nothing
nothing
nothing
nothing
nothing
nothing
nothing
nothing
nothing
nothing
nothing
nothing
nothing
nothing
nothing
nothing
nothing
nothing
nothing
nothing
nothing
nothing
nothing
nothing
nothing
nothing
nothing
nothing
nothing
nothing
nothing
nothing
nothing
nothing
nothing
nothing
nothing
nothing
nothing
nothing
nothing
nothing
nothing
nothing
nothing
nothing
nothing
nothing
nothing
nothing
nothing
nothing
nothing
nothing
nothing
nothing
nothing
nothing
nothing
nothing
nothing
nothing
nothing
nothing
nothing
nothing
nothing
nothing
nothing
nothing
nothing
nothing
nothing
nothing
nothing
nothing
nothing
nothing
nothing
nothing
nothing
nothing
nothing
nothing
nothing
nothing
nothing
nothing
nothing
nothing
nothing
nothing
nothing
nothing
nothing
nothing
nothing
nothing
nothing
nothing
nothing
nothing
nothing
nothing
nothing
nothing
nothing
nothing
nothing
nothing
nothing
nothing
nothing
nothing
nothing
nothing
nothing
nothing
nothing
nothing
nothing
nothing
nothing
nothing
nothing
nothing
nothing
nothing
nothing
nothing
nothing
nothing
nothing
nothing
nothing
nothing
nothing
nothing
nothing
nothing
nothing
nothing
nothing
nothing
nothing
nothing
nothing
nothing
nothing
nothing
nothing
nothing
nothing
nothing
nothing
nothing
nothing
nothing
nothing
nothing
nothing
nothing
nothing
nothing
nothing

ecp=special
none
none
none
none
none
none
none
none
none
none
none
none
none
none
none
none
none
none
none
none
none
none
none
none
none
none
none
none
none
none
none
none
none
none
none
none
none
none
none
none
none
none
none
none
none
none
none
none
none
none
none
none
none
none
none
none
none
none
none
none
none
none
none
none
none
none
none
none
none
none
none
none
none
none
none
none
none
none
none
none
none
none
none
none
none
none
none
none
none
none
none
none
none
none
none
none
none
none
none
none
none
none
none
none
none
none
none
none
none
none
none
none
none
none
none
none
none
none
none
none
none
none
none
ECP-10
ECP-10
ECP-10
ECP-10
ECP-10
ECP-10
ECP-10
ECP-10
ECP-10
ECP-10
ECP-10
ECP-10
ECP-10
ECP-10
ECP-10
ECP-10
ECP-10
ECP-10
ECP-10
ECP-10
ECP-10
ECP-10
ECP-10
ECP-10
ECP-10
ECP-10
ECP-10
ECP-10
ECP-10
ECP-10
ECP-10
ECP-10
ECP-10
ECP-10
ECP-10
ECP-10
ECP-10
ECP-10
ECP-10
ECP-10
ECP-10
ECP-10
ECP-10
ECP-10
ECP-10
ECP-10
ECP-10
ECP-10
ECP-10
ECP-10
ECP-10
ECP-10
ECP-10
ECP-10
ECP-10
ECP-10
ECP-10
ECP-10
ECP-10
ECP-10
ECP-10
ECP-10
ECP-10
ECP-10
ECP-10
ECP-10
ECP-10
ECP-10
ECP-10
ECP-10
ECP-10
ECP-10
ECP-10
ECP-10
ECP-10
ECP-10
ECP-10
ECP-10
ECP-10
ECP-10
ECP-10
ECP-10
ECP-10
ECP-10
ECP-10
ECP-10
ECP-10
ECP-10
ECP-10
ECP-10
ECP-10
ECP-10
ECP-10
ECP-10
ECP-10
ECP-10
ECP-10
ECP-10
ECP-10
ECP-10
ECP-10
ECP-10
ECP-10
ECP-10
ECP-10
ECP-10
ECP-10
ECP-10
ECP-10
ECP-10
ECP-10
ECP-10
ECP-10
ECP-10
ECP-10
ECP-10
ECP-10
ECP-10
ECP-10
ECP-10
ECP-10
ECP-10
ECP-10
ECP-10
ECP-10
ECP-10
ECP-10
ECP-10
ECP-10
ECP-10
ECP-10
ECP-10
ECP-10
ECP-10
ECP-10
ECP-10
ECP-10
ECP-10
ECP-10
ECP-10
ECP-10
ECP-10
ECP-10
ECP-10
ECP-10
ECP-10
ECP-10
ECP-10
ECP-10
ECP-10
ECP-10
ECP-10
ECP-10
ECP-10
ECP-10
ECP-10
ECP-10
ECP-10
ECP-10
ECP-10
ECP-10
ECP-10
ECP-10
ECP-10
ECP-10
ECP-10
ECP-10
ECP-10
ECP-10
ECP-10
ECP-10
ECP-10
ECP-10
ECP-10
ECP-10
ECP-10
ECP-10
ECP-10
ECP-10
ECP-10
ECP-10
ECP-10
ECP-10
ECP-10
ECP-10
ECP-10
ECP-10
ECP-10
ECP-10
ECP-10
ECP-10
ECP-10
ECP-10
ECP-10
ECP-10
ECP-10
ECP-10
ECP-10
ECP-10
ECP-10
ECP-10
ECP-10
ECP-10
ECP-10
ECP-10
ECP-10
ECP-10
ECP-10
ECP-10
ECP-10
ECP-10
ECP-10
ECP-10
ECP-10
ECP-10
ECP-10
ECP-10
ECP-10
ECP-10
ECP-10
ECP-10
ECP-10
ECP-10
ECP-10
ECP-10
ECP-10
ECP-10
ECP-10
ECP-10
ECP-10
ECP-10
ECP-10
ECP-10
ECP-10
ECP-10
ECP-10
ECP-10
ECP-10
ECP-10
ECP-10
ECP-10
ECP-10
ECP-10
ECP-10
ECP-10
ECP-10
ECP-10
ECP-10
ECP-10
ECP-10
ECP-10
ECP-10
ECP-10
ECP-10
ECP-10
ECP-10
ECP-10
ECP-10
ECP-10
ECP-10
ECP-10
ECP-10
ECP-10
ECP-10
ECP-10
ECP-10
ECP-10
ECP-10
ECP-10
ECP-10
ECP-10
ECP-10
ECP-10
ECP-10
ECP-10
ECP-10
ECP-10
ECP-10
ECP-10
ECP-10
ECP-10
ECP-10
ECP-10
ECP-10
ECP-10
ECP-10
ECP-10
ECP-10
ECP-10
ECP-10
ECP-10
ECP-10
ECP-10
ECP-10
ECP-10
ECP-10
ECP-10
ECP-10
ECP-10
ECP-10
ECP-10
ECP-10
ECP-10
ECP-10
ECP-10
ECP-10
ECP-10
ECP-10
ECP-10
ECP-10
ECP-10
ECP-10
ECP-10
ECP-10
ECP-10
ECP-10
ECP-10
ECP-10
ECP-10
ECP-10
ECP-10
ECP-10
ECP-10
ECP-10
ECP-10
ECP-10
ECP-10
ECP-10
ECP-10
ECP-10
ECP-10
ECP-10
ECP-10
ECP-10
ECP-10
ECP-10
ECP-10
ECP-10
ECP-10
ECP-10
ECP-10
ECP-10
ECP-10
ECP-10
ECP-10
ECP-10
ECP-10
ECP-10
ECP-10
ECP-10
ECP-10
ECP-10
ECP-10
ECP-10
ECP-10
ECP-10
ECP-10
ECP-10
ECP-10
ECP-10
ECP-10
ECP-10
ECP-10
ECP-10
ECP-10
ECP-10
ECP-10
ECP-10
ECP-10
ECP-10
ECP-10
ECP-10
ECP-10
ECP-10

unit=angs
geom=xyz
497

O     0.00000000000    0.00000000000    0.00000000000
Mg   -2.10322620878    0.00000373010   -0.04129472389
Mg   -0.00000077520    2.10323371923   -0.04127288263
Mg    2.10323191950    0.00000373010   -0.04129472389
Mg   -0.00000077520   -2.10322440905   -0.04127288263
Mg    0.00000550943    0.00000833428   -2.12731743682
O    -2.10322913797    2.10323249699   -0.00000184672
O     2.10322899032    2.10323249699   -0.00000184672
O     2.10322899032   -2.10322563130   -0.00000184672
O    -2.10322913797   -2.10322563130   -0.00000184672
O    -2.10322637832    0.00000013655   -2.13228003377
O     0.00000097398    2.10323217703   -2.13226748721
O     2.10323174996    0.00000013655   -2.13228003377
O     0.00000097398   -2.10322595126   -2.13226748721
Mg   -2.10322347462    2.10323704324   -2.12732261718
Mg    2.10323465367    2.10323704324   -2.12732261718
Mg    2.10323465367   -2.10322108505   -2.12732261718
Mg   -2.10322347462   -2.10322108505   -2.12732261718
O    -4.20645812828    0.00000000000    0.00000000000
O     0.00000000000    4.20645812828    0.00000000000
O     4.20645812828    0.00000000000    0.00000000000
O     0.00000000000   -4.20645812828    0.00000000000
O     0.00000732117    0.00000897147   -4.23909984007
Mg   -4.20645890349    2.10323371923   -0.04127288263
Mg   -2.10322620878    4.20646185838   -0.04129472389
Mg    2.10323191950    4.20646185838   -0.04129472389
Mg    4.20645735308    2.10323371923   -0.04127288263
Mg    4.20645735308   -2.10322440905   -0.04127288263
Mg    2.10323191950   -4.20645439819   -0.04129472389
Mg   -2.10322620878   -4.20645439819   -0.04129472389
Mg   -4.20645890349   -2.10322440905   -0.04127288263
Mg   -4.20645261886    0.00000833428   -2.12731743682
Mg    0.00000550943    4.20646646256   -2.12731743682
Mg    4.20646363771    0.00000833428   -2.12731743682
Mg    0.00000550943   -4.20644979401   -2.12731743682
Mg   -2.10322174297    0.00000897147   -4.23909984007
Mg    0.00000732117    2.10323803561   -4.23909984007
Mg    2.10323638531    0.00000897147   -4.23909984007
Mg    0.00000732117   -2.10322009268   -4.23909984007
O    -4.20645715431    2.10323217703   -2.13226748721
O    -2.10322637832    4.20645826484   -2.13228003377
O     2.10323174996    4.20645826484   -2.13228003377
O     4.20645910226    2.10323217703   -2.13226748721
O     4.20645910226   -2.10322595126   -2.13226748721
O     2.10323174996   -4.20645799173   -2.13228003377
O    -2.10322637832   -4.20645799173   -2.13228003377
O    -4.20645715431   -2.10322595126   -2.13226748721
O    -2.10322174297    2.10323803561   -4.23909984007
O     2.10323638531    2.10323803561   -4.23909984007
O     2.10323638531   -2.10322009268   -4.23909984007
O    -2.10322174297   -2.10322009268   -4.23909984007
O    -4.20645812828    4.20645812828    0.00000000000
O     4.20645812828    4.20645812828    0.00000000000
O     4.20645812828   -4.20645812828    0.00000000000
O    -4.20645812828   -4.20645812828    0.00000000000
O    -4.20645080711    0.00000897147   -4.23909984007
O     0.00000732117    4.20646709975   -4.23909984007
O     4.20646544946    0.00000897147   -4.23909984007
O     0.00000732117   -4.20644915682   -4.23909984007
Mg   -6.30968433707    0.00000373010   -0.04129472389
Mg   -0.00000077520    6.30969184751   -0.04127288263
Mg    6.30969004779    0.00000373010   -0.04129472389
Mg   -0.00000077520   -6.30968253734   -0.04127288263
Mg   -4.20645261886    4.20646646256   -2.12731743682
Mg    4.20646363771    4.20646646256   -2.12731743682
Mg    4.20646363771   -4.20644979401   -2.12731743682
Mg   -4.20645261886   -4.20644979401   -2.12731743682
Mg   -4.20645080711    2.10323803561   -4.23909984007
Mg   -2.10322174297    4.20646709975   -4.23909984007
Mg    2.10323638531    4.20646709975   -4.23909984007
Mg    4.20646544946    2.10323803561   -4.23909984007
Mg    4.20646544946   -2.10322009268   -4.23909984007
Mg    2.10323638531   -4.20644915682   -4.23909984007
Mg   -2.10322174297   -4.20644915682   -4.23909984007
Mg   -4.20645080711   -2.10322009268   -4.23909984007
O    -6.30968726625    2.10323249699   -0.00000184672
O    -2.10322913797    6.30969062527   -0.00000184672
O     2.10322899032    6.30969062527   -0.00000184672
O     6.30968711860    2.10323249699   -0.00000184672
O     6.30968711860   -2.10322563130   -0.00000184672
O     2.10322899032   -6.30968375958   -0.00000184672
O    -2.10322913797   -6.30968375958   -0.00000184672
O    -6.30968726625   -2.10322563130   -0.00000184672
O    -6.30968450660    0.00000013655   -2.13228003377
O     0.00000097398    6.30969030531   -2.13226748721
O     6.30968987825    0.00000013655   -2.13228003377
O     0.00000097398   -6.30968407954   -2.13226748721
O    -2.10322174297    0.00000897147   -6.34232890421
O     0.00000732117    2.10323803561   -6.34232890421
O     2.10323638531    0.00000897147   -6.34232890421
O     0.00000732117   -2.10322009268   -6.34232890421
O    -4.20645080711    4.20646709975   -4.23909984007
O     4.20646544946    4.20646709975   -4.23909984007
O     4.20646544946   -4.20644915682   -4.23909984007
O    -4.20645080711   -4.20644915682   -4.23909984007
O    -6.30968450660    4.20645826484   -2.13228003377
O    -4.20645715431    6.30969030531   -2.13226748721
O     4.20645910226    6.30969030531   -2.13226748721
O     6.30968987825    4.20645826484   -2.13228003377
O     6.30968987825   -4.20645799173   -2.13228003377
O     4.20645910226   -6.30968407954   -2.13226748721
O    -4.20645715431   -6.30968407954   -2.13226748721
O    -6.30968450660   -4.20645799173   -2.13228003377
O    -6.30967987125    2.10323803561   -4.23909984007
O    -2.10322174297    6.30969616389   -4.23909984007
O     2.10323638531    6.30969616389   -4.23909984007
O     6.30969451360    2.10323803561   -4.23909984007
O     6.30969451360   -2.10322009268   -4.23909984007
O     2.10323638531   -6.30967822096   -4.23909984007
O    -2.10322174297   -6.30967822096   -4.23909984007
O    -6.30967987125   -2.10322009268   -4.23909984007
O    -4.20645080711    2.10323803561   -6.34232890421
O    -2.10322174297    4.20646709975   -6.34232890421
O     2.10323638531    4.20646709975   -6.34232890421
O     4.20646544946    2.10323803561   -6.34232890421
O     4.20646544946   -2.10322009268   -6.34232890421
O     2.10323638531   -4.20644915682   -6.34232890421
O    -2.10322174297   -4.20644915682   -6.34232890421
O    -4.20645080711   -2.10322009268   -6.34232890421
O    -8.41291625657    0.00000000000    0.00000000000
O     0.00000000000    8.41291625657    0.00000000000
O     8.41291625657    0.00000000000    0.00000000000
O     0.00000000000   -8.41291625657    0.00000000000
Mg    0.00000732117    0.00000897147   -6.34232890421
Mg   -6.30968160290    2.10323704324   -2.12732261718
Mg   -2.10322347462    6.30969517152   -2.12732261718
Mg    2.10323465367    6.30969517152   -2.12732261718
Mg    6.30969278195    2.10323704324   -2.12732261718
Mg    6.30969278195   -2.10322108505   -2.12732261718
Mg    2.10323465367   -6.30967921333   -2.12732261718
Mg   -2.10322347462   -6.30967921333   -2.12732261718
Mg   -6.30968160290   -2.10322108505   -2.12732261718
Mg   -2.10322174297    2.10323803561   -6.34232890421
Mg    2.10323638531    2.10323803561   -6.34232890421
Mg    2.10323638531   -2.10322009268   -6.34232890421
Mg   -2.10322174297   -2.10322009268   -6.34232890421
Mg   -6.30968433707    4.20646185838   -0.04129472389
Mg   -4.20645890349    6.30969184751   -0.04127288263
Mg    4.20645735308    6.30969184751   -0.04127288263
Mg    6.30969004779    4.20646185838   -0.04129472389
Mg    6.30969004779   -4.20645439819   -0.04129472389
Mg    4.20645735308   -6.30968253734   -0.04127288263
Mg   -4.20645890349   -6.30968253734   -0.04127288263
Mg   -6.30968433707   -4.20645439819   -0.04129472389
Mg   -6.30967987125    0.00000897147   -4.23909984007
Mg    0.00000732117    6.30969616389   -4.23909984007
Mg    6.30969451360    0.00000897147   -4.23909984007
Mg    0.00000732117   -6.30967822096   -4.23909984007
Mg   -4.20645080711    0.00000897147   -6.34232890421
Mg    0.00000732117    4.20646709975   -6.34232890421
Mg    4.20646544946    0.00000897147   -6.34232890421
Mg    0.00000732117   -4.20644915682   -6.34232890421
Mg   -8.41291703177    2.10323371923   -0.04127288263
Mg   -2.10322620878    8.41291998667   -0.04129472389
Mg    2.10323191950    8.41291998667   -0.04129472389
Mg    8.41291548137    2.10323371923   -0.04127288263
Mg    8.41291548137   -2.10322440905   -0.04127288263
Mg    2.10323191950   -8.41291252647   -0.04129472389
Mg   -2.10322620878   -8.41291252647   -0.04129472389
Mg   -8.41291703177   -2.10322440905   -0.04127288263
Mg   -8.41291074714    0.00000833428   -2.12731743682
Mg    0.00000550943    8.41292459085   -2.12731743682
Mg    8.41292176600    0.00000833428   -2.12731743682
Mg    0.00000550943   -8.41290792229   -2.12731743682
Mg   -6.30967987125    4.20646709975   -4.23909984007
Mg   -4.20645080711    6.30969616389   -4.23909984007
Mg    4.20646544946    6.30969616389   -4.23909984007
Mg    6.30969451360    4.20646709975   -4.23909984007
Mg    6.30969451360   -4.20644915682   -4.23909984007
Mg    4.20646544946   -6.30967822096   -4.23909984007
Mg   -4.20645080711   -6.30967822096   -4.23909984007
Mg   -6.30967987125   -4.20644915682   -4.23909984007
Mg   -4.20645080711    4.20646709975   -6.34232890421
Mg    4.20646544946    4.20646709975   -6.34232890421
Mg    4.20646544946   -4.20644915682   -6.34232890421
Mg   -4.20645080711   -4.20644915682   -6.34232890421
Mg   -2.10322174297    0.00000897147   -8.44555796836
Mg    0.00000732117    2.10323803561   -8.44555796836
Mg    2.10323638531    0.00000897147   -8.44555796836
Mg    0.00000732117   -2.10322009268   -8.44555796836
Mg   -6.30968160290    6.30969517152   -2.12732261718
Mg    6.30969278195    6.30969517152   -2.12732261718
Mg    6.30969278195   -6.30967921333   -2.12732261718
Mg   -6.30968160290   -6.30967921333   -2.12732261718
Mg   -6.30967987125    2.10323803561   -6.34232890421
Mg   -2.10322174297    6.30969616389   -6.34232890421
Mg    2.10323638531    6.30969616389   -6.34232890421
Mg    6.30969451360    2.10323803561   -6.34232890421
Mg    6.30969451360   -2.10322009268   -6.34232890421
Mg    2.10323638531   -6.30967822096   -6.34232890421
Mg   -2.10322174297   -6.30967822096   -6.34232890421
Mg   -6.30967987125   -2.10322009268   -6.34232890421
Mg   -8.41291074714    4.20646646256   -2.12731743682
Mg   -4.20645261886    8.41292459085   -2.12731743682
Mg    4.20646363771    8.41292459085   -2.12731743682
Mg    8.41292176600    4.20646646256   -2.12731743682
Mg    8.41292176600   -4.20644979401   -2.12731743682
Mg    4.20646363771   -8.41290792229   -2.12731743682
Mg   -4.20645261886   -8.41290792229   -2.12731743682
Mg   -8.41291074714   -4.20644979401   -2.12731743682
Mg   -8.41290893540    2.10323803561   -4.23909984007
Mg   -2.10322174297    8.41292522803   -4.23909984007
Mg    2.10323638531    8.41292522803   -4.23909984007
Mg    8.41292357774    2.10323803561   -4.23909984007
Mg    8.41292357774   -2.10322009268   -4.23909984007
Mg    2.10323638531   -8.41290728510   -4.23909984007
Mg   -2.10322174297   -8.41290728510   -4.23909984007
Mg   -8.41290893540   -2.10322009268   -4.23909984007
Mg   -4.20645080711    2.10323803561   -8.44555796836
Mg   -2.10322174297    4.20646709975   -8.44555796836
Mg    2.10323638531    4.20646709975   -8.44555796836
Mg    4.20646544946    2.10323803561   -8.44555796836
Mg    4.20646544946   -2.10322009268   -8.44555796836
Mg    2.10323638531   -4.20644915682   -8.44555796836
Mg   -2.10322174297   -4.20644915682   -8.44555796836
Mg   -4.20645080711   -2.10322009268   -8.44555796836
Mg  -10.51614246535    0.00000373010   -0.04129472389
Mg   -8.41291703177    6.30969184751   -0.04127288263
Mg   -6.30968433707    8.41291998667   -0.04129472389
Mg   -0.00000077520   10.51614997580   -0.04127288263
Mg    6.30969004779    8.41291998667   -0.04129472389
Mg    8.41291548137    6.30969184751   -0.04127288263
Mg   10.51614817607    0.00000373010   -0.04129472389
Mg    8.41291548137   -6.30968253734   -0.04127288263
Mg    6.30969004779   -8.41291252647   -0.04129472389
Mg   -0.00000077520  -10.51614066562   -0.04127288263
Mg   -6.30968433707   -8.41291252647   -0.04129472389
Mg   -8.41291703177   -6.30968253734   -0.04127288263
Mg   -8.41290893540    0.00000897147   -6.34232890421
Mg    0.00000732117    8.41292522803   -6.34232890421
Mg    8.41292357774    0.00000897147   -6.34232890421
Mg    0.00000732117   -8.41290728510   -6.34232890421
Mg   -6.30967987125    0.00000897147   -8.44555796836
Mg    0.00000732117    6.30969616389   -8.44555796836
Mg    6.30969451360    0.00000897147   -8.44555796836
Mg    0.00000732117   -6.30967822096   -8.44555796836
Mg    0.00000732117    0.00000897147  -10.54878703250
Mg  -10.51613973119    2.10323704324   -2.12732261718
Mg   -2.10322347462   10.51615329981   -2.12732261718
Mg    2.10323465367   10.51615329981   -2.12732261718
Mg   10.51615091024    2.10323704324   -2.12732261718
Mg   10.51615091024   -2.10322108505   -2.12732261718
Mg    2.10323465367  -10.51613734162   -2.12732261718
Mg   -2.10322347462  -10.51613734162   -2.12732261718
Mg  -10.51613973119   -2.10322108505   -2.12732261718
Mg   -6.30967987125    6.30969616389   -6.34232890421
Mg    6.30969451360    6.30969616389   -6.34232890421
Mg    6.30969451360   -6.30967822096   -6.34232890421
Mg   -6.30967987125   -6.30967822096   -6.34232890421
Mg   -2.10322174297    2.10323803561  -10.54878703250
Mg    2.10323638531    2.10323803561  -10.54878703250
Mg    2.10323638531   -2.10322009268  -10.54878703250
Mg   -2.10322174297   -2.10322009268  -10.54878703250
Mg  -10.51614246535    4.20646185838   -0.04129472389
Mg   -4.20645890349   10.51614997580   -0.04127288263
Mg    4.20645735308   10.51614997580   -0.04127288263
Mg   10.51614817607    4.20646185838   -0.04129472389
Mg   10.51614817607   -4.20645439819   -0.04129472389
Mg    4.20645735308  -10.51614066562   -0.04127288263
Mg   -4.20645890349  -10.51614066562   -0.04127288263
Mg  -10.51614246535   -4.20645439819   -0.04129472389
Mg  -10.51613799954    0.00000897147   -4.23909984007
Mg   -8.41290893540    6.30969616389   -4.23909984007
Mg   -6.30967987125    8.41292522803   -4.23909984007
Mg    0.00000732117   10.51615429218   -4.23909984007
Mg    6.30969451360    8.41292522803   -4.23909984007
Mg    8.41292357774    6.30969616389   -4.23909984007
Mg   10.51615264188    0.00000897147   -4.23909984007
Mg    8.41292357774   -6.30967822096   -4.23909984007
Mg    6.30969451360   -8.41290728510   -4.23909984007
Mg    0.00000732117  -10.51613634924   -4.23909984007
Mg   -6.30967987125   -8.41290728510   -4.23909984007
Mg   -8.41290893540   -6.30967822096   -4.23909984007
Mg   -8.41290893540    4.20646709975   -6.34232890421
Mg   -4.20645080711    8.41292522803   -6.34232890421
Mg    4.20646544946    8.41292522803   -6.34232890421
Mg    8.41292357774    4.20646709975   -6.34232890421
Mg    8.41292357774   -4.20644915682   -6.34232890421
Mg    4.20646544946   -8.41290728510   -6.34232890421
Mg   -4.20645080711   -8.41290728510   -6.34232890421
Mg   -8.41290893540   -4.20644915682   -6.34232890421
Mg   -6.30967987125    4.20646709975   -8.44555796836
Mg   -4.20645080711    6.30969616389   -8.44555796836
Mg    4.20646544946    6.30969616389   -8.44555796836
Mg    6.30969451360    4.20646709975   -8.44555796836
Mg    6.30969451360   -4.20644915682   -8.44555796836
Mg    4.20646544946   -6.30967822096   -8.44555796836
Mg   -4.20645080711   -6.30967822096   -8.44555796836
Mg   -6.30967987125   -4.20644915682   -8.44555796836
Mg   -4.20645080711    0.00000897147  -10.54878703250
Mg    0.00000732117    4.20646709975  -10.54878703250
Mg    4.20646544946    0.00000897147  -10.54878703250
Mg    0.00000732117   -4.20644915682  -10.54878703250
Mg   -8.41291074714    8.41292459085   -2.12731743682
Mg    8.41292176600    8.41292459085   -2.12731743682
Mg    8.41292176600   -8.41290792229   -2.12731743682
Mg   -8.41291074714   -8.41290792229   -2.12731743682
Mg  -10.51613799954    4.20646709975   -4.23909984007
Mg   -4.20645080711   10.51615429218   -4.23909984007
Mg    4.20646544946   10.51615429218   -4.23909984007
Mg   10.51615264188    4.20646709975   -4.23909984007
Mg   10.51615264188   -4.20644915682   -4.23909984007
Mg    4.20646544946  -10.51613634924   -4.23909984007
Mg   -4.20645080711  -10.51613634924   -4.23909984007
Mg  -10.51613799954   -4.20644915682   -4.23909984007
Mg   -8.41290893540    2.10323803561   -8.44555796836
Mg   -2.10322174297    8.41292522803   -8.44555796836
Mg    2.10323638531    8.41292522803   -8.44555796836
Mg    8.41292357774    2.10323803561   -8.44555796836
Mg    8.41292357774   -2.10322009268   -8.44555796836
Mg    2.10323638531   -8.41290728510   -8.44555796836
Mg   -2.10322174297   -8.41290728510   -8.44555796836
Mg   -8.41290893540   -2.10322009268   -8.44555796836
Mg   -4.20645080711    4.20646709975  -10.54878703250
Mg    4.20646544946    4.20646709975  -10.54878703250
Mg    4.20646544946   -4.20644915682  -10.54878703250
Mg   -4.20645080711   -4.20644915682  -10.54878703250
Mg  -10.51613973119    6.30969517152   -2.12732261718
Mg   -6.30968160290   10.51615329981   -2.12732261718
Mg    6.30969278195   10.51615329981   -2.12732261718
Mg   10.51615091024    6.30969517152   -2.12732261718
Mg   10.51615091024   -6.30967921333   -2.12732261718
Mg    6.30969278195  -10.51613734162   -2.12732261718
Mg   -6.30968160290  -10.51613734162   -2.12732261718
Mg  -10.51613973119   -6.30967921333   -2.12732261718
Mg  -10.51613799954    2.10323803561   -6.34232890421
Mg   -2.10322174297   10.51615429218   -6.34232890421
Mg    2.10323638531   10.51615429218   -6.34232890421
Mg   10.51615264188    2.10323803561   -6.34232890421
Mg   10.51615264188   -2.10322009268   -6.34232890421
Mg    2.10323638531  -10.51613634924   -6.34232890421
Mg   -2.10322174297  -10.51613634924   -6.34232890421
Mg  -10.51613799954   -2.10322009268   -6.34232890421
Mg   -6.30967987125    2.10323803561  -10.54878703250
Mg   -2.10322174297    6.30969616389  -10.54878703250
Mg    2.10323638531    6.30969616389  -10.54878703250
Mg    6.30969451360    2.10323803561  -10.54878703250
Mg    6.30969451360   -2.10322009268  -10.54878703250
Mg    2.10323638531   -6.30967822096  -10.54878703250
Mg   -2.10322174297   -6.30967822096  -10.54878703250
Mg   -6.30967987125   -2.10322009268  -10.54878703250
Mg  -12.61937516006    2.10323371923   -0.04127288263
Mg   -2.10322620878   12.61937811495   -0.04129472389
Mg    2.10323191950   12.61937811495   -0.04129472389
Mg   12.61937360965    2.10323371923   -0.04127288263
Mg   12.61937360965   -2.10322440905   -0.04127288263
Mg    2.10323191950  -12.61937065476   -0.04129472389
Mg   -2.10322620878  -12.61937065476   -0.04129472389
Mg  -12.61937516006   -2.10322440905   -0.04127288263
Mg  -12.61936887543    0.00000833428   -2.12731743682
Mg    0.00000550943   12.61938271913   -2.12731743682
Mg   12.61937989428    0.00000833428   -2.12731743682
Mg    0.00000550943  -12.61936605057   -2.12731743682
Mg   -2.10322174297    0.00000897147  -12.65201609664
Mg    0.00000732117    2.10323803561  -12.65201609664
Mg    2.10323638531    0.00000897147  -12.65201609664
Mg    0.00000732117   -2.10322009268  -12.65201609664
Mg  -10.51614246535    8.41291998667   -0.04129472389
Mg   -8.41291703177   10.51614997580   -0.04127288263
Mg    8.41291548137   10.51614997580   -0.04127288263
Mg   10.51614817607    8.41291998667   -0.04129472389
Mg   10.51614817607   -8.41291252647   -0.04129472389
Mg    8.41291548137  -10.51614066562   -0.04127288263
Mg   -8.41291703177  -10.51614066562   -0.04127288263
Mg  -10.51614246535   -8.41291252647   -0.04129472389
Mg  -12.61936887543    4.20646646256   -2.12731743682
Mg   -4.20645261886   12.61938271913   -2.12731743682
Mg    4.20646363771   12.61938271913   -2.12731743682
Mg   12.61937989428    4.20646646256   -2.12731743682
Mg   12.61937989428   -4.20644979401   -2.12731743682
Mg    4.20646363771  -12.61936605057   -2.12731743682
Mg   -4.20645261886  -12.61936605057   -2.12731743682
Mg  -12.61936887543   -4.20644979401   -2.12731743682
Mg  -12.61936706368    2.10323803561   -4.23909984007
Mg   -2.10322174297   12.61938335632   -4.23909984007
Mg    2.10323638531   12.61938335632   -4.23909984007
Mg   12.61938170602    2.10323803561   -4.23909984007
Mg   12.61938170602   -2.10322009268   -4.23909984007
Mg    2.10323638531  -12.61936541339   -4.23909984007
Mg   -2.10322174297  -12.61936541339   -4.23909984007
Mg  -12.61936706368   -2.10322009268   -4.23909984007
Mg   -8.41290893540    8.41292522803   -6.34232890421
Mg    8.41292357774    8.41292522803   -6.34232890421
Mg    8.41292357774   -8.41290728510   -6.34232890421
Mg   -8.41290893540   -8.41290728510   -6.34232890421
Mg  -10.51613799954    0.00000897147   -8.44555796836
Mg   -8.41290893540    6.30969616389   -8.44555796836
Mg   -6.30967987125    8.41292522803   -8.44555796836
Mg    0.00000732117   10.51615429218   -8.44555796836
Mg    6.30969451360    8.41292522803   -8.44555796836
Mg    8.41292357774    6.30969616389   -8.44555796836
Mg   10.51615264188    0.00000897147   -8.44555796836
Mg    8.41292357774   -6.30967822096   -8.44555796836
Mg    6.30969451360   -8.41290728510   -8.44555796836
Mg    0.00000732117  -10.51613634924   -8.44555796836
Mg   -6.30967987125   -8.41290728510   -8.44555796836
Mg   -8.41290893540   -6.30967822096   -8.44555796836
Mg   -8.41290893540    0.00000897147  -10.54878703250
Mg    0.00000732117    8.41292522803  -10.54878703250
Mg    8.41292357774    0.00000897147  -10.54878703250
Mg    0.00000732117   -8.41290728510  -10.54878703250
Mg   -4.20645080711    2.10323803561  -12.65201609664
Mg   -2.10322174297    4.20646709975  -12.65201609664
Mg    2.10323638531    4.20646709975  -12.65201609664
Mg    4.20646544946    2.10323803561  -12.65201609664
Mg    4.20646544946   -2.10322009268  -12.65201609664
Mg    2.10323638531   -4.20644915682  -12.65201609664
Mg   -2.10322174297   -4.20644915682  -12.65201609664
Mg   -4.20645080711   -2.10322009268  -12.65201609664
Mg  -10.51613799954    6.30969616389   -6.34232890421
Mg   -6.30967987125   10.51615429218   -6.34232890421
Mg    6.30969451360   10.51615429218   -6.34232890421
Mg   10.51615264188    6.30969616389   -6.34232890421
Mg   10.51615264188   -6.30967822096   -6.34232890421
Mg    6.30969451360  -10.51613634924   -6.34232890421
Mg   -6.30967987125  -10.51613634924   -6.34232890421
Mg  -10.51613799954   -6.30967822096   -6.34232890421
Mg   -6.30967987125    6.30969616389  -10.54878703250
Mg    6.30969451360    6.30969616389  -10.54878703250
Mg    6.30969451360   -6.30967822096  -10.54878703250
Mg   -6.30967987125   -6.30967822096  -10.54878703250
Mg  -12.61937516006    6.30969184751   -0.04127288263
Mg   -6.30968433707   12.61937811495   -0.04129472389
Mg    6.30969004779   12.61937811495   -0.04129472389
Mg   12.61937360965    6.30969184751   -0.04127288263
Mg   12.61937360965   -6.30968253734   -0.04127288263
Mg    6.30969004779  -12.61937065476   -0.04129472389
Mg   -6.30968433707  -12.61937065476   -0.04129472389
Mg  -12.61937516006   -6.30968253734   -0.04127288263
Mg  -10.51613799954    8.41292522803   -4.23909984007
Mg   -8.41290893540   10.51615429218   -4.23909984007
Mg    8.41292357774   10.51615429218   -4.23909984007
Mg   10.51615264188    8.41292522803   -4.23909984007
Mg   10.51615264188   -8.41290728510   -4.23909984007
Mg    8.41292357774  -10.51613634924   -4.23909984007
Mg   -8.41290893540  -10.51613634924   -4.23909984007
Mg  -10.51613799954   -8.41290728510   -4.23909984007
Mg  -12.61936706368    0.00000897147   -6.34232890421
Mg    0.00000732117   12.61938335632   -6.34232890421
Mg   12.61938170602    0.00000897147   -6.34232890421
Mg    0.00000732117  -12.61936541339   -6.34232890421
Mg  -10.51613799954    4.20646709975   -8.44555796836
Mg   -4.20645080711   10.51615429218   -8.44555796836
Mg    4.20646544946   10.51615429218   -8.44555796836
Mg   10.51615264188    4.20646709975   -8.44555796836
Mg   10.51615264188   -4.20644915682   -8.44555796836
Mg    4.20646544946  -10.51613634924   -8.44555796836
Mg   -4.20645080711  -10.51613634924   -8.44555796836
Mg  -10.51613799954   -4.20644915682   -8.44555796836
Mg   -8.41290893540    4.20646709975  -10.54878703250
Mg   -4.20645080711    8.41292522803  -10.54878703250
Mg    4.20646544946    8.41292522803  -10.54878703250
Mg    8.41292357774    4.20646709975  -10.54878703250
Mg    8.41292357774   -4.20644915682  -10.54878703250
Mg    4.20646544946   -8.41290728510  -10.54878703250
Mg   -4.20645080711   -8.41290728510  -10.54878703250
Mg   -8.41290893540   -4.20644915682  -10.54878703250
Mg   -6.30967987125    0.00000897147  -12.65201609664
Mg    0.00000732117    6.30969616389  -12.65201609664
Mg    6.30969451360    0.00000897147  -12.65201609664
Mg    0.00000732117   -6.30967822096  -12.65201609664
Mg  -14.72260059364    0.00000373010   -0.04129472389
Mg   -0.00000077520   14.72260810408   -0.04127288263
Mg   14.72260630435    0.00000373010   -0.04129472389
Mg   -0.00000077520  -14.72259879391   -0.04127288263
Mg  -12.61936706368    6.30969616389   -4.23909984007
Mg   -6.30967987125   12.61938335632   -4.23909984007
Mg    6.30969451360   12.61938335632   -4.23909984007
Mg   12.61938170602    6.30969616389   -4.23909984007
Mg   12.61938170602   -6.30967822096   -4.23909984007
Mg    6.30969451360  -12.61936541339   -4.23909984007
Mg   -6.30967987125  -12.61936541339   -4.23909984007
Mg  -12.61936706368   -6.30967822096   -4.23909984007
Mg  -12.61936706368    4.20646709975   -6.34232890421
Mg   -4.20645080711   12.61938335632   -6.34232890421
Mg    4.20646544946   12.61938335632   -6.34232890421
Mg   12.61938170602    4.20646709975   -6.34232890421
Mg   12.61938170602   -4.20644915682   -6.34232890421
Mg    4.20646544946  -12.61936541339   -6.34232890421
Mg   -4.20645080711  -12.61936541339   -6.34232890421
Mg  -12.61936706368   -4.20644915682   -6.34232890421
Mg   -6.30967987125    4.20646709975  -12.65201609664
Mg   -4.20645080711    6.30969616389  -12.65201609664
Mg    4.20646544946    6.30969616389  -12.65201609664
Mg    6.30969451360    4.20646709975  -12.65201609664
Mg    6.30969451360   -4.20644915682  -12.65201609664
Mg    4.20646544946   -6.30967822096  -12.65201609664
Mg   -4.20645080711   -6.30967822096  -12.65201609664
Mg   -6.30967987125   -4.20644915682  -12.65201609664
Mg  -14.72259785947    2.10323704324   -2.12732261718
Mg   -2.10322347462   14.72261142809   -2.12732261718
Mg    2.10323465367   14.72261142809   -2.12732261718
Mg   14.72260903852    2.10323704324   -2.12732261718
Mg   14.72260903852   -2.10322108505   -2.12732261718
Mg    2.10323465367  -14.72259546990   -2.12732261718
Mg   -2.10322347462  -14.72259546990   -2.12732261718
Mg  -14.72259785947   -2.10322108505   -2.12732261718

qmmm=Amber
pointcharges
9655
      0.00000732117    0.00000897147   -8.44555796836   -2.00000000000
     -6.30968726625    6.30969062527   -0.00000184672   -2.00000000000
      6.30968711860    6.30969062527   -0.00000184672   -2.00000000000
      6.30968711860   -6.30968375958   -0.00000184672   -2.00000000000
     -6.30968726625   -6.30968375958   -0.00000184672   -2.00000000000
     -8.41291528259    2.10323217703   -2.13226748721   -2.00000000000
     -2.10322637832    8.41291639312   -2.13228003377   -2.00000000000
      2.10323174996    8.41291639312   -2.13228003377   -2.00000000000
      8.41291723054    2.10323217703   -2.13226748721   -2.00000000000
      8.41291723054   -2.10322595126   -2.13226748721   -2.00000000000
      2.10323174996   -8.41291612001   -2.13228003377   -2.00000000000
     -2.10322637832   -8.41291612001   -2.13228003377   -2.00000000000
     -8.41291528259   -2.10322595126   -2.13226748721   -2.00000000000
     -6.30967987125    0.00000897147   -6.34232890421   -2.00000000000
      0.00000732117    6.30969616389   -6.34232890421   -2.00000000000
      6.30969451360    0.00000897147   -6.34232890421   -2.00000000000
      0.00000732117   -6.30967822096   -6.34232890421   -2.00000000000
     -2.10322174297    2.10323803561   -8.44555796836   -2.00000000000
      2.10323638531    2.10323803561   -8.44555796836   -2.00000000000
      2.10323638531   -2.10322009268   -8.44555796836   -2.00000000000
     -2.10322174297   -2.10322009268   -8.44555796836   -2.00000000000
     -8.41291625657    4.20645812828    0.00000000000   -2.00000000000
     -4.20645812828    8.41291625657    0.00000000000   -2.00000000000
      4.20645812828    8.41291625657    0.00000000000   -2.00000000000
      8.41291625657    4.20645812828    0.00000000000   -2.00000000000
      8.41291625657   -4.20645812828    0.00000000000   -2.00000000000
      4.20645812828   -8.41291625657    0.00000000000   -2.00000000000
     -4.20645812828   -8.41291625657    0.00000000000   -2.00000000000
     -8.41291625657   -4.20645812828    0.00000000000   -2.00000000000
     -8.41290893540    0.00000897147   -4.23909984007   -2.00000000000
      0.00000732117    8.41292522803   -4.23909984007   -2.00000000000
      8.41292357774    0.00000897147   -4.23909984007   -2.00000000000
      0.00000732117   -8.41290728510   -4.23909984007   -2.00000000000
     -4.20645080711    0.00000897147   -8.44555796836   -2.00000000000
      0.00000732117    4.20646709975   -8.44555796836   -2.00000000000
      4.20646544946    0.00000897147   -8.44555796836   -2.00000000000
      0.00000732117   -4.20644915682   -8.44555796836   -2.00000000000
     -6.30967987125    6.30969616389   -4.23909984007   -2.00000000000
      6.30969451360    6.30969616389   -4.23909984007   -2.00000000000
      6.30969451360   -6.30967822096   -4.23909984007   -2.00000000000
     -6.30967987125   -6.30967822096   -4.23909984007   -2.00000000000
     -6.30967987125    4.20646709975   -6.34232890421   -2.00000000000
     -4.20645080711    6.30969616389   -6.34232890421   -2.00000000000
      4.20646544946    6.30969616389   -6.34232890421   -2.00000000000
      6.30969451360    4.20646709975   -6.34232890421   -2.00000000000
      6.30969451360   -4.20644915682   -6.34232890421   -2.00000000000
      4.20646544946   -6.30967822096   -6.34232890421   -2.00000000000
     -4.20645080711   -6.30967822096   -6.34232890421   -2.00000000000
     -6.30967987125   -4.20644915682   -6.34232890421   -2.00000000000
     -8.41290893540    4.20646709975   -4.23909984007   -2.00000000000
     -4.20645080711    8.41292522803   -4.23909984007   -2.00000000000
      4.20646544946    8.41292522803   -4.23909984007   -2.00000000000
      8.41292357774    4.20646709975   -4.23909984007   -2.00000000000
      8.41292357774   -4.20644915682   -4.23909984007   -2.00000000000
      4.20646544946   -8.41290728510   -4.23909984007   -2.00000000000
     -4.20645080711   -8.41290728510   -4.23909984007   -2.00000000000
     -8.41290893540   -4.20644915682   -4.23909984007   -2.00000000000
     -4.20645080711    4.20646709975   -8.44555796836   -2.00000000000
      4.20646544946    4.20646709975   -8.44555796836   -2.00000000000
      4.20646544946   -4.20644915682   -8.44555796836   -2.00000000000
     -4.20645080711   -4.20644915682   -8.44555796836   -2.00000000000
    -10.51614539454    2.10323249699   -0.00000184672   -2.00000000000
     -2.10322913797   10.51614875355   -0.00000184672   -2.00000000000
      2.10322899032   10.51614875355   -0.00000184672   -2.00000000000
     10.51614524688    2.10323249699   -0.00000184672   -2.00000000000
     10.51614524688   -2.10322563130   -0.00000184672   -2.00000000000
      2.10322899032  -10.51614188787   -0.00000184672   -2.00000000000
     -2.10322913797  -10.51614188787   -0.00000184672   -2.00000000000
    -10.51614539454   -2.10322563130   -0.00000184672   -2.00000000000
    -10.51614263489    0.00000013655   -2.13228003377   -2.00000000000
     -8.41291528259    6.30969030531   -2.13226748721   -2.00000000000
     -6.30968450660    8.41291639312   -2.13228003377   -2.00000000000
      0.00000097398   10.51614843360   -2.13226748721   -2.00000000000
      6.30968987825    8.41291639312   -2.13228003377   -2.00000000000
      8.41291723054    6.30969030531   -2.13226748721   -2.00000000000
     10.51614800653    0.00000013655   -2.13228003377   -2.00000000000
      8.41291723054   -6.30968407954   -2.13226748721   -2.00000000000
      6.30968987825   -8.41291612001   -2.13228003377   -2.00000000000
      0.00000097398  -10.51614220782   -2.13226748721   -2.00000000000
     -6.30968450660   -8.41291612001   -2.13228003377   -2.00000000000
     -8.41291528259   -6.30968407954   -2.13226748721   -2.00000000000
     -8.41290893540    2.10323803561   -6.34232890421   -2.00000000000
     -2.10322174297    8.41292522803   -6.34232890421   -2.00000000000
      2.10323638531    8.41292522803   -6.34232890421   -2.00000000000
      8.41292357774    2.10323803561   -6.34232890421   -2.00000000000
      8.41292357774   -2.10322009268   -6.34232890421   -2.00000000000
      2.10323638531   -8.41290728510   -6.34232890421   -2.00000000000
     -2.10322174297   -8.41290728510   -6.34232890421   -2.00000000000
     -8.41290893540   -2.10322009268   -6.34232890421   -2.00000000000
     -6.30967987125    2.10323803561   -8.44555796836   -2.00000000000
     -2.10322174297    6.30969616389   -8.44555796836   -2.00000000000
      2.10323638531    6.30969616389   -8.44555796836   -2.00000000000
      6.30969451360    2.10323803561   -8.44555796836   -2.00000000000
      6.30969451360   -2.10322009268   -8.44555796836   -2.00000000000
      2.10323638531   -6.30967822096   -8.44555796836   -2.00000000000
     -2.10322174297   -6.30967822096   -8.44555796836   -2.00000000000
     -6.30967987125   -2.10322009268   -8.44555796836   -2.00000000000
     -2.10322174297    0.00000897147  -10.54878703250   -2.00000000000
      0.00000732117    2.10323803561  -10.54878703250   -2.00000000000
      2.10323638531    0.00000897147  -10.54878703250   -2.00000000000
      0.00000732117   -2.10322009268  -10.54878703250   -2.00000000000
    -10.51614263489    4.20645826484   -2.13228003377   -2.00000000000
     -4.20645715431   10.51614843360   -2.13226748721   -2.00000000000
      4.20645910226   10.51614843360   -2.13226748721   -2.00000000000
     10.51614800653    4.20645826484   -2.13228003377   -2.00000000000
     10.51614800653   -4.20645799173   -2.13228003377   -2.00000000000
      4.20645910226  -10.51614220782   -2.13226748721   -2.00000000000
     -4.20645715431  -10.51614220782   -2.13226748721   -2.00000000000
    -10.51614263489   -4.20645799173   -2.13228003377   -2.00000000000
    -10.51613799954    2.10323803561   -4.23909984007   -2.00000000000
     -2.10322174297   10.51615429218   -4.23909984007   -2.00000000000
      2.10323638531   10.51615429218   -4.23909984007   -2.00000000000
     10.51615264188    2.10323803561   -4.23909984007   -2.00000000000
     10.51615264188   -2.10322009268   -4.23909984007   -2.00000000000
      2.10323638531  -10.51613634924   -4.23909984007   -2.00000000000
     -2.10322174297  -10.51613634924   -4.23909984007   -2.00000000000
    -10.51613799954   -2.10322009268   -4.23909984007   -2.00000000000
     -4.20645080711    2.10323803561  -10.54878703250   -2.00000000000
     -2.10322174297    4.20646709975  -10.54878703250   -2.00000000000
      2.10323638531    4.20646709975  -10.54878703250   -2.00000000000
      4.20646544946    2.10323803561  -10.54878703250   -2.00000000000
      4.20646544946   -2.10322009268  -10.54878703250   -2.00000000000
      2.10323638531   -4.20644915682  -10.54878703250   -2.00000000000
     -2.10322174297   -4.20644915682  -10.54878703250   -2.00000000000
     -4.20645080711   -2.10322009268  -10.54878703250   -2.00000000000
     -8.41291625657    8.41291625657    0.00000000000   -2.00000000000
      8.41291625657    8.41291625657    0.00000000000   -2.00000000000
      8.41291625657   -8.41291625657    0.00000000000   -2.00000000000
     -8.41291625657   -8.41291625657    0.00000000000   -2.00000000000
     -8.41290893540    0.00000897147   -8.44555796836   -2.00000000000
      0.00000732117    8.41292522803   -8.44555796836   -2.00000000000
      8.41292357774    0.00000897147   -8.44555796836   -2.00000000000
      0.00000732117   -8.41290728510   -8.44555796836   -2.00000000000
    -10.51614539454    6.30969062527   -0.00000184672   -2.00000000000
     -6.30968726625   10.51614875355   -0.00000184672   -2.00000000000
      6.30968711860   10.51614875355   -0.00000184672   -2.00000000000
     10.51614524688    6.30969062527   -0.00000184672   -2.00000000000
     10.51614524688   -6.30968375958   -0.00000184672   -2.00000000000
      6.30968711860  -10.51614188787   -0.00000184672   -2.00000000000
     -6.30968726625  -10.51614188787   -0.00000184672   -2.00000000000
    -10.51614539454   -6.30968375958   -0.00000184672   -2.00000000000
    -10.51613799954    0.00000897147   -6.34232890421   -2.00000000000
     -8.41290893540    6.30969616389   -6.34232890421   -2.00000000000
     -6.30967987125    8.41292522803   -6.34232890421   -2.00000000000
      0.00000732117   10.51615429218   -6.34232890421   -2.00000000000
      6.30969451360    8.41292522803   -6.34232890421   -2.00000000000
      8.41292357774    6.30969616389   -6.34232890421   -2.00000000000
     10.51615264188    0.00000897147   -6.34232890421   -2.00000000000
      8.41292357774   -6.30967822096   -6.34232890421   -2.00000000000
      6.30969451360   -8.41290728510   -6.34232890421   -2.00000000000
      0.00000732117  -10.51613634924   -6.34232890421   -2.00000000000
     -6.30967987125   -8.41290728510   -6.34232890421   -2.00000000000
     -8.41290893540   -6.30967822096   -6.34232890421   -2.00000000000
     -6.30967987125    6.30969616389   -8.44555796836   -2.00000000000
      6.30969451360    6.30969616389   -8.44555796836   -2.00000000000
      6.30969451360   -6.30967822096   -8.44555796836   -2.00000000000
     -6.30967987125   -6.30967822096   -8.44555796836   -2.00000000000
     -6.30967987125    0.00000897147  -10.54878703250   -2.00000000000
      0.00000732117    6.30969616389  -10.54878703250   -2.00000000000
      6.30969451360    0.00000897147  -10.54878703250   -2.00000000000
      0.00000732117   -6.30967822096  -10.54878703250   -2.00000000000
    -12.61937438485    0.00000000000    0.00000000000   -2.00000000000
      0.00000000000   12.61937438485    0.00000000000   -2.00000000000
     12.61937438485    0.00000000000    0.00000000000   -2.00000000000
      0.00000000000  -12.61937438485    0.00000000000   -2.00000000000
     -8.41290893540    8.41292522803   -4.23909984007   -2.00000000000
      8.41292357774    8.41292522803   -4.23909984007   -2.00000000000
      8.41292357774   -8.41290728510   -4.23909984007   -2.00000000000
     -8.41290893540   -8.41290728510   -4.23909984007   -2.00000000000
     -8.41290893540    4.20646709975   -8.44555796836   -2.00000000000
     -4.20645080711    8.41292522803   -8.44555796836   -2.00000000000
      4.20646544946    8.41292522803   -8.44555796836   -2.00000000000
      8.41292357774    4.20646709975   -8.44555796836   -2.00000000000
      8.41292357774   -4.20644915682   -8.44555796836   -2.00000000000
      4.20646544946   -8.41290728510   -8.44555796836   -2.00000000000
     -4.20645080711   -8.41290728510   -8.44555796836   -2.00000000000
     -8.41290893540   -4.20644915682   -8.44555796836   -2.00000000000
      0.00000732117    0.00000897147  -12.65201609664   -2.00000000000
    -12.61937341088    2.10323217703   -2.13226748721   -2.00000000000
     -2.10322637832   12.61937452141   -2.13228003377   -2.00000000000
      2.10323174996   12.61937452141   -2.13228003377   -2.00000000000
     12.61937535883    2.10323217703   -2.13226748721   -2.00000000000
     12.61937535883   -2.10322595126   -2.13226748721   -2.00000000000
      2.10323174996  -12.61937424830   -2.13228003377   -2.00000000000
     -2.10322637832  -12.61937424830   -2.13228003377   -2.00000000000
    -12.61937341088   -2.10322595126   -2.13226748721   -2.00000000000
    -10.51613799954    6.30969616389   -4.23909984007   -2.00000000000
     -6.30967987125   10.51615429218   -4.23909984007   -2.00000000000
      6.30969451360   10.51615429218   -4.23909984007   -2.00000000000
     10.51615264188    6.30969616389   -4.23909984007   -2.00000000000
     10.51615264188   -6.30967822096   -4.23909984007   -2.00000000000
      6.30969451360  -10.51613634924   -4.23909984007   -2.00000000000
     -6.30967987125  -10.51613634924   -4.23909984007   -2.00000000000
    -10.51613799954   -6.30967822096   -4.23909984007   -2.00000000000
    -10.51613799954    4.20646709975   -6.34232890421   -2.00000000000
     -4.20645080711   10.51615429218   -6.34232890421   -2.00000000000
      4.20646544946   10.51615429218   -6.34232890421   -2.00000000000
     10.51615264188    4.20646709975   -6.34232890421   -2.00000000000
     10.51615264188   -4.20644915682   -6.34232890421   -2.00000000000
      4.20646544946  -10.51613634924   -6.34232890421   -2.00000000000
     -4.20645080711  -10.51613634924   -6.34232890421   -2.00000000000
    -10.51613799954   -4.20644915682   -6.34232890421   -2.00000000000
     -6.30967987125    4.20646709975  -10.54878703250   -2.00000000000
     -4.20645080711    6.30969616389  -10.54878703250   -2.00000000000
      4.20646544946    6.30969616389  -10.54878703250   -2.00000000000
      6.30969451360    4.20646709975  -10.54878703250   -2.00000000000
      6.30969451360   -4.20644915682  -10.54878703250   -2.00000000000
      4.20646544946   -6.30967822096  -10.54878703250   -2.00000000000
     -4.20645080711   -6.30967822096  -10.54878703250   -2.00000000000
     -6.30967987125   -4.20644915682  -10.54878703250   -2.00000000000
     -2.10322174297    2.10323803561  -12.65201609664   -2.00000000000
      2.10323638531    2.10323803561  -12.65201609664   -2.00000000000
      2.10323638531   -2.10322009268  -12.65201609664   -2.00000000000
     -2.10322174297   -2.10322009268  -12.65201609664   -2.00000000000
    -12.61937438485    4.20645812828    0.00000000000   -2.00000000000
     -4.20645812828   12.61937438485    0.00000000000   -2.00000000000
      4.20645812828   12.61937438485    0.00000000000   -2.00000000000
     12.61937438485    4.20645812828    0.00000000000   -2.00000000000
     12.61937438485   -4.20645812828    0.00000000000   -2.00000000000
      4.20645812828  -12.61937438485    0.00000000000   -2.00000000000
     -4.20645812828  -12.61937438485    0.00000000000   -2.00000000000
    -12.61937438485   -4.20645812828    0.00000000000   -2.00000000000
    -12.61936706368    0.00000897147   -4.23909984007   -2.00000000000
      0.00000732117   12.61938335632   -4.23909984007   -2.00000000000
     12.61938170602    0.00000897147   -4.23909984007   -2.00000000000
      0.00000732117  -12.61936541339   -4.23909984007   -2.00000000000
     -4.20645080711    0.00000897147  -12.65201609664   -2.00000000000
      0.00000732117    4.20646709975  -12.65201609664   -2.00000000000
      4.20646544946    0.00000897147  -12.65201609664   -2.00000000000
      0.00000732117   -4.20644915682  -12.65201609664   -2.00000000000
    -10.51614263489    8.41291639312   -2.13228003377   -2.00000000000
     -8.41291528259   10.51614843360   -2.13226748721   -2.00000000000
      8.41291723054   10.51614843360   -2.13226748721   -2.00000000000
     10.51614800653    8.41291639312   -2.13228003377   -2.00000000000
     10.51614800653   -8.41291612001   -2.13228003377   -2.00000000000
      8.41291723054  -10.51614220782   -2.13226748721   -2.00000000000
     -8.41291528259  -10.51614220782   -2.13226748721   -2.00000000000
    -10.51614263489   -8.41291612001   -2.13228003377   -2.00000000000
    -10.51613799954    2.10323803561   -8.44555796836   -2.00000000000
     -2.10322174297   10.51615429218   -8.44555796836   -2.00000000000
      2.10323638531   10.51615429218   -8.44555796836   -2.00000000000
     10.51615264188    2.10323803561   -8.44555796836   -2.00000000000
     10.51615264188   -2.10322009268   -8.44555796836   -2.00000000000
      2.10323638531  -10.51613634924   -8.44555796836   -2.00000000000
     -2.10322174297  -10.51613634924   -8.44555796836   -2.00000000000
    -10.51613799954   -2.10322009268   -8.44555796836   -2.00000000000
     -8.41290893540    2.10323803561  -10.54878703250   -2.00000000000
     -2.10322174297    8.41292522803  -10.54878703250   -2.00000000000
      2.10323638531    8.41292522803  -10.54878703250   -2.00000000000
      8.41292357774    2.10323803561  -10.54878703250   -2.00000000000
      8.41292357774   -2.10322009268  -10.54878703250   -2.00000000000
      2.10323638531   -8.41290728510  -10.54878703250   -2.00000000000
     -2.10322174297   -8.41290728510  -10.54878703250   -2.00000000000
     -8.41290893540   -2.10322009268  -10.54878703250   -2.00000000000
    -12.61936706368    4.20646709975   -4.23909984007   -2.00000000000
     -4.20645080711   12.61938335632   -4.23909984007   -2.00000000000
      4.20646544946   12.61938335632   -4.23909984007   -2.00000000000
     12.61938170602    4.20646709975   -4.23909984007   -2.00000000000
     12.61938170602   -4.20644915682   -4.23909984007   -2.00000000000
      4.20646544946  -12.61936541339   -4.23909984007   -2.00000000000
     -4.20645080711  -12.61936541339   -4.23909984007   -2.00000000000
    -12.61936706368   -4.20644915682   -4.23909984007   -2.00000000000
     -4.20645080711    4.20646709975  -12.65201609664   -2.00000000000
      4.20646544946    4.20646709975  -12.65201609664   -2.00000000000
      4.20646544946   -4.20644915682  -12.65201609664   -2.00000000000
     -4.20645080711   -4.20644915682  -12.65201609664   -2.00000000000
    -12.61937341088    6.30969030531   -2.13226748721   -2.00000000000
     -6.30968450660   12.61937452141   -2.13228003377   -2.00000000000
      6.30968987825   12.61937452141   -2.13228003377   -2.00000000000
     12.61937535883    6.30969030531   -2.13226748721   -2.00000000000
     12.61937535883   -6.30968407954   -2.13226748721   -2.00000000000
      6.30968987825  -12.61937424830   -2.13228003377   -2.00000000000
     -6.30968450660  -12.61937424830   -2.13228003377   -2.00000000000
    -12.61937341088   -6.30968407954   -2.13226748721   -2.00000000000
    -12.61936706368    2.10323803561   -6.34232890421   -2.00000000000
     -2.10322174297   12.61938335632   -6.34232890421   -2.00000000000
      2.10323638531   12.61938335632   -6.34232890421   -2.00000000000
     12.61938170602    2.10323803561   -6.34232890421   -2.00000000000
     12.61938170602   -2.10322009268   -6.34232890421   -2.00000000000
      2.10323638531  -12.61936541339   -6.34232890421   -2.00000000000
     -2.10322174297  -12.61936541339   -6.34232890421   -2.00000000000
    -12.61936706368   -2.10322009268   -6.34232890421   -2.00000000000
     -6.30967987125    2.10323803561  -12.65201609664   -2.00000000000
     -2.10322174297    6.30969616389  -12.65201609664   -2.00000000000
      2.10323638531    6.30969616389  -12.65201609664   -2.00000000000
      6.30969451360    2.10323803561  -12.65201609664   -2.00000000000
      6.30969451360   -2.10322009268  -12.65201609664   -2.00000000000
      2.10323638531   -6.30967822096  -12.65201609664   -2.00000000000
     -2.10322174297   -6.30967822096  -12.65201609664   -2.00000000000
     -6.30967987125   -2.10322009268  -12.65201609664   -2.00000000000
    -14.72260352282    2.10323249699   -0.00000184672   -2.00000000000
     -2.10322913797   14.72260688184   -0.00000184672   -2.00000000000
      2.10322899032   14.72260688184   -0.00000184672   -2.00000000000
     14.72260337517    2.10323249699   -0.00000184672   -2.00000000000
     14.72260337517   -2.10322563130   -0.00000184672   -2.00000000000
      2.10322899032  -14.72260001615   -0.00000184672   -2.00000000000
     -2.10322913797  -14.72260001615   -0.00000184672   -2.00000000000
    -14.72260352282   -2.10322563130   -0.00000184672   -2.00000000000
    -14.72260076317    0.00000013655   -2.13228003377   -2.00000000000
      0.00000097398   14.72260656188   -2.13226748721   -2.00000000000
     14.72260613482    0.00000013655   -2.13228003377   -2.00000000000
      0.00000097398  -14.72260033611   -2.13226748721   -2.00000000000
     -8.41290893540    8.41292522803   -8.44555796836   -2.00000000000
      8.41292357774    8.41292522803   -8.44555796836   -2.00000000000
      8.41292357774   -8.41290728510   -8.44555796836   -2.00000000000
     -8.41290893540   -8.41290728510   -8.44555796836   -2.00000000000
      0.00000732117    0.00000897147  -14.75524516078    2.00000000000
    -10.51614539454   10.51614875355   -0.00000184672   -2.00000000000
     10.51614524688   10.51614875355   -0.00000184672   -2.00000000000
     10.51614524688  -10.51614188787   -0.00000184672   -2.00000000000
    -10.51614539454  -10.51614188787   -0.00000184672   -2.00000000000
    -10.51613799954    8.41292522803   -6.34232890421   -2.00000000000
     -8.41290893540   10.51615429218   -6.34232890421   -2.00000000000
      8.41292357774   10.51615429218   -6.34232890421   -2.00000000000
     10.51615264188    8.41292522803   -6.34232890421   -2.00000000000
     10.51615264188   -8.41290728510   -6.34232890421   -2.00000000000
      8.41292357774  -10.51613634924   -6.34232890421   -2.00000000000
     -8.41290893540  -10.51613634924   -6.34232890421   -2.00000000000
    -10.51613799954   -8.41290728510   -6.34232890421   -2.00000000000
    -10.51613799954    6.30969616389   -8.44555796836   -2.00000000000
     -6.30967987125   10.51615429218   -8.44555796836   -2.00000000000
      6.30969451360   10.51615429218   -8.44555796836   -2.00000000000
     10.51615264188    6.30969616389   -8.44555796836   -2.00000000000
     10.51615264188   -6.30967822096   -8.44555796836   -2.00000000000
      6.30969451360  -10.51613634924   -8.44555796836   -2.00000000000
     -6.30967987125  -10.51613634924   -8.44555796836   -2.00000000000
    -10.51613799954   -6.30967822096   -8.44555796836   -2.00000000000
    -10.51613799954    0.00000897147  -10.54878703250   -2.00000000000
     -8.41290893540    6.30969616389  -10.54878703250   -2.00000000000
     -6.30967987125    8.41292522803  -10.54878703250   -2.00000000000
      0.00000732117   10.51615429218  -10.54878703250   -2.00000000000
      6.30969451360    8.41292522803  -10.54878703250   -2.00000000000
      8.41292357774    6.30969616389  -10.54878703250   -2.00000000000
     10.51615264188    0.00000897147  -10.54878703250   -2.00000000000
      8.41292357774   -6.30967822096  -10.54878703250   -2.00000000000
      6.30969451360   -8.41290728510  -10.54878703250   -2.00000000000
      0.00000732117  -10.51613634924  -10.54878703250   -2.00000000000
     -6.30967987125   -8.41290728510  -10.54878703250   -2.00000000000
     -8.41290893540   -6.30967822096  -10.54878703250   -2.00000000000
     -2.10322174297    0.00000897147  -14.75524516078   -2.00000000000
      0.00000732117    2.10323803561  -14.75524516078   -2.00000000000
      2.10323638531    0.00000897147  -14.75524516078   -2.00000000000
      0.00000732117   -2.10322009268  -14.75524516078   -2.00000000000
    -10.51613973119   10.51615329981   -2.12732261718    2.00000000000
     10.51615091024   10.51615329981   -2.12732261718    2.00000000000
     10.51615091024  -10.51613734162   -2.12732261718    2.00000000000
    -10.51613973119  -10.51613734162   -2.12732261718    2.00000000000
    -10.51613799954    2.10323803561  -10.54878703250    2.00000000000
     -2.10322174297   10.51615429218  -10.54878703250    2.00000000000
      2.10323638531   10.51615429218  -10.54878703250    2.00000000000
     10.51615264188    2.10323803561  -10.54878703250    2.00000000000
     10.51615264188   -2.10322009268  -10.54878703250    2.00000000000
      2.10323638531  -10.51613634924  -10.54878703250    2.00000000000
     -2.10322174297  -10.51613634924  -10.54878703250    2.00000000000
    -10.51613799954   -2.10322009268  -10.54878703250    2.00000000000
     -2.10322174297    2.10323803561  -14.75524516078    2.00000000000
      2.10323638531    2.10323803561  -14.75524516078    2.00000000000
      2.10323638531   -2.10322009268  -14.75524516078    2.00000000000
     -2.10322174297   -2.10322009268  -14.75524516078    2.00000000000
    -12.61937438485    8.41291625657    0.00000000000   -2.00000000000
     -8.41291625657   12.61937438485    0.00000000000   -2.00000000000
      8.41291625657   12.61937438485    0.00000000000   -2.00000000000
     12.61937438485    8.41291625657    0.00000000000   -2.00000000000
     12.61937438485   -8.41291625657    0.00000000000   -2.00000000000
      8.41291625657  -12.61937438485    0.00000000000   -2.00000000000
     -8.41291625657  -12.61937438485    0.00000000000   -2.00000000000
    -12.61937438485   -8.41291625657    0.00000000000   -2.00000000000
    -12.61936706368    0.00000897147   -8.44555796836   -2.00000000000
      0.00000732117   12.61938335632   -8.44555796836   -2.00000000000
     12.61938170602    0.00000897147   -8.44555796836   -2.00000000000
      0.00000732117  -12.61936541339   -8.44555796836   -2.00000000000
     -8.41290893540    0.00000897147  -12.65201609664   -2.00000000000
      0.00000732117    8.41292522803  -12.65201609664   -2.00000000000
      8.41292357774    0.00000897147  -12.65201609664   -2.00000000000
      0.00000732117   -8.41290728510  -12.65201609664   -2.00000000000
    -14.72260059364    4.20646185838   -0.04129472389    2.00000000000
     -4.20645890349   14.72260810408   -0.04127288263    2.00000000000
      4.20645735308   14.72260810408   -0.04127288263    2.00000000000
     14.72260630435    4.20646185838   -0.04129472389    2.00000000000
     14.72260630435   -4.20645439819   -0.04129472389    2.00000000000
      4.20645735308  -14.72259879391   -0.04127288263    2.00000000000
     -4.20645890349  -14.72259879391   -0.04127288263    2.00000000000
    -14.72260059364   -4.20645439819   -0.04129472389    2.00000000000
    -12.61936887543    8.41292459085   -2.12731743682    2.00000000000
     -8.41291074714   12.61938271913   -2.12731743682    2.00000000000
      8.41292176600   12.61938271913   -2.12731743682    2.00000000000
     12.61937989428    8.41292459085   -2.12731743682    2.00000000000
     12.61937989428   -8.41290792229   -2.12731743682    2.00000000000
      8.41292176600  -12.61936605057   -2.12731743682    2.00000000000
     -8.41291074714  -12.61936605057   -2.12731743682    2.00000000000
    -12.61936887543   -8.41290792229   -2.12731743682    2.00000000000
    -14.72259612782    0.00000897147   -4.23909984007    2.00000000000
      0.00000732117   14.72261242046   -4.23909984007    2.00000000000
     14.72261077017    0.00000897147   -4.23909984007    2.00000000000
      0.00000732117  -14.72259447753   -4.23909984007    2.00000000000
    -12.61936706368    2.10323803561   -8.44555796836    2.00000000000
     -2.10322174297   12.61938335632   -8.44555796836    2.00000000000
      2.10323638531   12.61938335632   -8.44555796836    2.00000000000
     12.61938170602    2.10323803561   -8.44555796836    2.00000000000
     12.61938170602   -2.10322009268   -8.44555796836    2.00000000000
      2.10323638531  -12.61936541339   -8.44555796836    2.00000000000
     -2.10322174297  -12.61936541339   -8.44555796836    2.00000000000
    -12.61936706368   -2.10322009268   -8.44555796836    2.00000000000
     -8.41290893540    2.10323803561  -12.65201609664    2.00000000000
     -2.10322174297    8.41292522803  -12.65201609664    2.00000000000
      2.10323638531    8.41292522803  -12.65201609664    2.00000000000
      8.41292357774    2.10323803561  -12.65201609664    2.00000000000
      8.41292357774   -2.10322009268  -12.65201609664    2.00000000000
      2.10323638531   -8.41290728510  -12.65201609664    2.00000000000
     -2.10322174297   -8.41290728510  -12.65201609664    2.00000000000
     -8.41290893540   -2.10322009268  -12.65201609664    2.00000000000
     -4.20645080711    0.00000897147  -14.75524516078    2.00000000000
      0.00000732117    4.20646709975  -14.75524516078    2.00000000000
      4.20646544946    0.00000897147  -14.75524516078    2.00000000000
      0.00000732117   -4.20644915682  -14.75524516078    2.00000000000
    -14.72260076317    4.20645826484   -2.13228003377   -2.00000000000
     -4.20645715431   14.72260656188   -2.13226748721   -2.00000000000
      4.20645910226   14.72260656188   -2.13226748721   -2.00000000000
     14.72260613482    4.20645826484   -2.13228003377   -2.00000000000
     14.72260613482   -4.20645799173   -2.13228003377   -2.00000000000
      4.20645910226  -14.72260033611   -2.13226748721   -2.00000000000
     -4.20645715431  -14.72260033611   -2.13226748721   -2.00000000000
    -14.72260076317   -4.20645799173   -2.13228003377   -2.00000000000
    -14.72259612782    2.10323803561   -4.23909984007   -2.00000000000
    -10.51613799954   10.51615429218   -4.23909984007   -2.00000000000
     -2.10322174297   14.72261242046   -4.23909984007   -2.00000000000
      2.10323638531   14.72261242046   -4.23909984007   -2.00000000000
     10.51615264188   10.51615429218   -4.23909984007   -2.00000000000
     14.72261077017    2.10323803561   -4.23909984007   -2.00000000000
     14.72261077017   -2.10322009268   -4.23909984007   -2.00000000000
     10.51615264188  -10.51613634924   -4.23909984007   -2.00000000000
      2.10323638531  -14.72259447753   -4.23909984007   -2.00000000000
     -2.10322174297  -14.72259447753   -4.23909984007   -2.00000000000
    -10.51613799954  -10.51613634924   -4.23909984007   -2.00000000000
    -14.72259612782   -2.10322009268   -4.23909984007   -2.00000000000
    -12.61936706368    6.30969616389   -6.34232890421   -2.00000000000
     -6.30967987125   12.61938335632   -6.34232890421   -2.00000000000
      6.30969451360   12.61938335632   -6.34232890421   -2.00000000000
     12.61938170602    6.30969616389   -6.34232890421   -2.00000000000
     12.61938170602   -6.30967822096   -6.34232890421   -2.00000000000
      6.30969451360  -12.61936541339   -6.34232890421   -2.00000000000
     -6.30967987125  -12.61936541339   -6.34232890421   -2.00000000000
    -12.61936706368   -6.30967822096   -6.34232890421   -2.00000000000
    -10.51613799954    4.20646709975  -10.54878703250   -2.00000000000
     -4.20645080711   10.51615429218  -10.54878703250   -2.00000000000
      4.20646544946   10.51615429218  -10.54878703250   -2.00000000000
     10.51615264188    4.20646709975  -10.54878703250   -2.00000000000
     10.51615264188   -4.20644915682  -10.54878703250   -2.00000000000
      4.20646544946  -10.51613634924  -10.54878703250   -2.00000000000
     -4.20645080711  -10.51613634924  -10.54878703250   -2.00000000000
    -10.51613799954   -4.20644915682  -10.54878703250   -2.00000000000
     -6.30967987125    6.30969616389  -12.65201609664   -2.00000000000
      6.30969451360    6.30969616389  -12.65201609664   -2.00000000000
      6.30969451360   -6.30967822096  -12.65201609664   -2.00000000000
     -6.30967987125   -6.30967822096  -12.65201609664   -2.00000000000
     -4.20645080711    2.10323803561  -14.75524516078   -2.00000000000
     -2.10322174297    4.20646709975  -14.75524516078   -2.00000000000
      2.10323638531    4.20646709975  -14.75524516078   -2.00000000000
      4.20646544946    2.10323803561  -14.75524516078   -2.00000000000
      4.20646544946   -2.10322009268  -14.75524516078   -2.00000000000
      2.10323638531   -4.20644915682  -14.75524516078   -2.00000000000
     -2.10322174297   -4.20644915682  -14.75524516078   -2.00000000000
     -4.20645080711   -2.10322009268  -14.75524516078   -2.00000000000
    -12.61936706368    8.41292522803   -4.23909984007   -2.00000000000
     -8.41290893540   12.61938335632   -4.23909984007   -2.00000000000
      8.41292357774   12.61938335632   -4.23909984007   -2.00000000000
     12.61938170602    8.41292522803   -4.23909984007   -2.00000000000
     12.61938170602   -8.41290728510   -4.23909984007   -2.00000000000
      8.41292357774  -12.61936541339   -4.23909984007   -2.00000000000
     -8.41290893540  -12.61936541339   -4.23909984007   -2.00000000000
    -12.61936706368   -8.41290728510   -4.23909984007   -2.00000000000
    -12.61936706368    4.20646709975   -8.44555796836   -2.00000000000
     -4.20645080711   12.61938335632   -8.44555796836   -2.00000000000
      4.20646544946   12.61938335632   -8.44555796836   -2.00000000000
     12.61938170602    4.20646709975   -8.44555796836   -2.00000000000
     12.61938170602   -4.20644915682   -8.44555796836   -2.00000000000
      4.20646544946  -12.61936541339   -8.44555796836   -2.00000000000
     -4.20645080711  -12.61936541339   -8.44555796836   -2.00000000000
    -12.61936706368   -4.20644915682   -8.44555796836   -2.00000000000
     -8.41290893540    4.20646709975  -12.65201609664   -2.00000000000
     -4.20645080711    8.41292522803  -12.65201609664   -2.00000000000
      4.20646544946    8.41292522803  -12.65201609664   -2.00000000000
      8.41292357774    4.20646709975  -12.65201609664   -2.00000000000
      8.41292357774   -4.20644915682  -12.65201609664   -2.00000000000
      4.20646544946   -8.41290728510  -12.65201609664   -2.00000000000
     -4.20645080711   -8.41290728510  -12.65201609664   -2.00000000000
     -8.41290893540   -4.20644915682  -12.65201609664   -2.00000000000
    -14.72259612782    4.20646709975   -4.23909984007    2.00000000000
     -4.20645080711   14.72261242046   -4.23909984007    2.00000000000
      4.20646544946   14.72261242046   -4.23909984007    2.00000000000
     14.72261077017    4.20646709975   -4.23909984007    2.00000000000
     14.72261077017   -4.20644915682   -4.23909984007    2.00000000000
      4.20646544946  -14.72259447753   -4.23909984007    2.00000000000
     -4.20645080711  -14.72259447753   -4.23909984007    2.00000000000
    -14.72259612782   -4.20644915682   -4.23909984007    2.00000000000
    -10.51613799954    8.41292522803   -8.44555796836    2.00000000000
     -8.41290893540   10.51615429218   -8.44555796836    2.00000000000
      8.41292357774   10.51615429218   -8.44555796836    2.00000000000
     10.51615264188    8.41292522803   -8.44555796836    2.00000000000
[...]
 1429   A          1.905822       1.905822
 1430   A          1.905826       1.905826
 1431   A          1.906338       1.906338
 1432   A          1.908409       1.908409
 1433   A          1.933491       1.933491
 1434   A          1.938381       1.938381
 1435   A          1.939484       1.939484
 1436   A          1.950340       1.950340
 1437   A          1.950927       1.950927
 1438   A          1.952699       1.952699
 1439   A          1.952700       1.952700
 1440   A          1.972457       1.972457
 1441   A          1.982602       1.982602
 1442   A          1.985790       1.985790
 1443   A          1.985791       1.985791
 1444   A          2.002476       2.002476
 1445   A          2.005744       2.005744
 1446   A          2.010595       2.010595
 1447   A          2.019121       2.019121
 1448   A          2.019122       2.019122
 1449   A          2.020779       2.020779
 1450   A          2.036600       2.036600
 1451   A          2.044560       2.044560
 1452   A          2.052495       2.052495
 1453   A          2.058171       2.058171
 1454   A          2.058173       2.058173
 1455   A          2.077176       2.077176
 1456   A          2.077176       2.077176
 1457   A          2.085260       2.085260
 1458   A          2.102876       2.102876
 1459   A          2.102876       2.102876
 1460   A          2.103022       2.103022
 1461   A          2.108843       2.108843
 1462   A          2.113245       2.113245
 1463   A          2.113246       2.113246
 1464   A          2.139256       2.139256
 1465   A          2.139258       2.139258
 1466   A          2.147972       2.147972
 1467   A          2.166227       2.166227
 1468   A          2.166231       2.166231
 1469   A          2.178065       2.178065
 1470   A          2.184180       2.184180
 1471   A          2.194108       2.194108
 1472   A          2.227995       2.227995
 1473   A          2.229333       2.229333
 1474   A          2.229333       2.229333
 1475   A          2.254882       2.254882
 1476   A          2.266836       2.266836
 1477   A          2.641054       2.641054
 1478   A          2.644209       2.644209
 1479   A          2.645426       2.645426
 1480   A          2.645427       2.645427
 1481   A          2.645669       2.645669
 1482   A          2.646166       2.646166
 1483   A          2.646166       2.646166
 1484   A          2.646390       2.646390
 1485   A          2.646763       2.646763
 1486   A          2.647615       2.647615
 1487   A          2.648741       2.648741
 1488   A          2.648741       2.648741
 1489   A          2.649299       2.649299
 1490   A          2.649634       2.649634
 1491   A          2.649787       2.649787
 1492   A          2.649787       2.649787
 1493   A          2.650184       2.650184
 1494   A          2.650349       2.650349
 1495   A          2.650349       2.650349
 1496   A          2.650393       2.650393
 1497   A          2.650404       2.650404
 1498   A          2.650621       2.650621
 1499   A          2.651149       2.651149
 1500   A          2.651214       2.651214
 1501   A          2.651214       2.651214
 1502   A          2.652115       2.652115
 1503   A          2.652358       2.652358
 1504   A          2.652451       2.652451
 1505   A          2.652451       2.652451
 1506   A          2.652615       2.652615
 1507   A          2.652866       2.652866
 1508   A          2.653203       2.653203
 1509   A          2.653843       2.653843
 1510   A          2.653843       2.653843
 1511   A          2.654616       2.654616
 1512   A          2.654616       2.654616
 1513   A          2.655005       2.655005
 1514   A          2.655119       2.655119
 1515   A          2.655127       2.655127
 1516   A          2.655468       2.655468
 1517   A          2.655468       2.655468
 1518   A          2.655585       2.655585
 1519   A          2.655624       2.655624
 1520   A          2.655808       2.655808
 1521   A          2.656125       2.656125
 1522   A          2.656125       2.656125
 1523   A          2.657065       2.657065
 1524   A          2.657067       2.657067
 1525   A          2.657387       2.657387
 1526   A          2.657949       2.657949
 1527   A          2.657949       2.657949
 1528   A          2.658150       2.658150
 1529   A          2.660183       2.660183
 1530   A          2.660183       2.660183
 1531   A          2.660310       2.660310
 1532   A          2.660310       2.660310
 1533   A          2.660821       2.660821
 1534   A          2.662250       2.662250
 1535   A          2.662888       2.662888
 1536   A          2.663043       2.663043
 1537   A          2.663043       2.663043
 1538   A          2.663555       2.663555
 1539   A          2.664021       2.664021
 1540   A          2.664021       2.664021
 1541   A          2.664595       2.664595
 1542   A          2.664595       2.664595
 1543   A          2.664640       2.664640
 1544   A          2.664773       2.664773
 1545   A          2.664911       2.664911
 1546   A          2.664911       2.664911
 1547   A          2.666368       2.666368
 1548   A          2.667274       2.667274
 1549   A          2.667275       2.667275
 1550   A          2.667496       2.667496
 1551   A          2.668391       2.668391
 1552   A          2.670135       2.670135
 1553   A          2.670197       2.670197
 1554   A          2.670399       2.670399
 1555   A          2.670399       2.670399
 1556   A          2.671102       2.671102
 1557   A          2.672283       2.672283
 1558   A          2.673158       2.673158
 1559   A          2.674913       2.674913
 1560   A          2.674914       2.674914
 1561   A          2.676395       2.676395
 1562   A          2.676396       2.676396
 1563   A          2.676650       2.676650
 1564   A          2.678074       2.678074
 1565   A          2.680624       2.680624
 1566   A          2.680789       2.680789
 1567   A          2.680790       2.680790
 1568   A          2.684440       2.684440
 1569   A          2.684552       2.684552
 1570   A          2.684553       2.684553
 1571   A          2.685025       2.685025
 1572   A          2.685141       2.685141
 1573   A          2.685864       2.685864
 1574   A          2.686972       2.686972
 1575   A          2.686973       2.686973
 1576   A          2.689242       2.689242
 1577   A          2.689242       2.689242
 1578   A          2.692433       2.692433
 1579   A          2.692706       2.692706
 1580   A          2.693387       2.693387
 1581   A          2.693954       2.693954
 1582   A          2.693954       2.693954
 1583   A          2.695360       2.695360
 1584   A          2.696612       2.696612
 1585   A          2.698916       2.698916
 1586   A          2.699459       2.699459
 1587   A          2.699460       2.699460
 1588   A          2.701792       2.701792
 1589   A          2.702994       2.702994
 1590   A          2.702994       2.702994
 1591   A          2.704283       2.704283
 1592   A          2.704664       2.704664
 1593   A          2.706594       2.706594
 1594   A          2.706594       2.706594
 1595   A          2.706773       2.706773
 1596   A          2.712564       2.712564
 1597   A          2.712564       2.712564
 1598   A          2.717834       2.717834
 1599   A          2.718002       2.718002
 1600   A          2.719643       2.719643
 1601   A          2.719929       2.719929
 1602   A          2.720362       2.720362
 1603   A          2.720428       2.720428
 1604   A          2.720428       2.720428
 1605   A          2.721424       2.721424
 1606   A          2.722365       2.722365
 1607   A          2.724879       2.724879
 1608   A          2.727009       2.727009
 1609   A          2.727010       2.727010
 1610   A          2.728696       2.728696
 1611   A          2.730045       2.730045
 1612   A          2.730758       2.730758
 1613   A          2.730758       2.730758
 1614   A          2.732485       2.732485
 1615   A          2.734216       2.734216
 1616   A          2.735301       2.735301
 1617   A          2.735302       2.735302
 1618   A          2.736366       2.736366
 1619   A          2.738573       2.738573
 1620   A          2.739692       2.739692
 1621   A          2.741554       2.741554
 1622   A          2.741556       2.741556
 1623   A          2.742254       2.742254
 1624   A          2.742263       2.742263
 1625   A          2.743099       2.743099
 1626   A          2.743208       2.743208
 1627   A          2.743208       2.743208
 1628   A          2.745111       2.745111
 1629   A          2.745111       2.745111
 1630   A          2.747103       2.747103
 1631   A          2.747105       2.747105
 1632   A          2.747814       2.747814
 1633   A          2.748988       2.748988
 1634   A          2.748995       2.748995
 1635   A          2.751352       2.751352
 1636   A          2.751354       2.751354
 1637   A          2.753110       2.753110
 1638   A          2.753485       2.753485
 1639   A          2.755190       2.755190
 1640   A          2.755190       2.755190
 1641   A          2.757012       2.757012
 1642   A          2.757012       2.757012
 1643   A          2.758934       2.758934
 1644   A          2.759301       2.759301
 1645   A          2.761181       2.761181
 1646   A          2.761182       2.761182
 1647   A          2.762587       2.762587
 1648   A          2.763413       2.763413
 1649   A          2.763434       2.763434
 1650   A          2.763434       2.763434
 1651   A          2.766195       2.766195
 1652   A          2.767499       2.767499
 1653   A          2.768392       2.768392
 1654   A          2.768392       2.768392
 1655   A          2.768476       2.768476
 1656   A          2.770737       2.770737
 1657   A          2.770737       2.770737
 1658   A          2.771860       2.771860
 1659   A          2.772189       2.772189
 1660   A          2.772888       2.772888
 1661   A          2.773458       2.773458
 1662   A          2.775145       2.775145
 1663   A          2.776018       2.776018
 1664   A          2.776019       2.776019
 1665   A          2.777585       2.777585
 1666   A          2.779800       2.779800
 1667   A          2.779920       2.779920
 1668   A          2.779921       2.779921
 1669   A          2.781952       2.781952
 1670   A          2.781952       2.781952
 1671   A          2.782393       2.782393
 1672   A          2.782517       2.782517
 1673   A          2.782906       2.782906
 1674   A          2.783020       2.783020
 1675   A          2.783020       2.783020
 1676   A          2.783702       2.783702
 1677   A          2.784328       2.784328
 1678   A          2.784328       2.784328
 1679   A          2.785970       2.785970
 1680   A          2.786011       2.786011
 1681   A          2.786694       2.786694
 1682   A          2.788548       2.788548
 1683   A          2.788548       2.788548
 1684   A          2.789968       2.789968
 1685   A          2.790252       2.790252
 1686   A          2.790252       2.790252
 1687   A          2.792017       2.792017
 1688   A          2.792598       2.792598
 1689   A          2.793149       2.793149
 1690   A          2.794506       2.794506
 1691   A          2.794507       2.794507
 1692   A          2.795743       2.795743
 1693   A          2.801517       2.801517
 1694   A          2.801517       2.801517
 1695   A          2.804332       2.804332
 1696   A          2.805077       2.805077
 1697   A          2.805079       2.805079
 1698   A          2.805190       2.805190
 1699   A          2.805428       2.805428
 1700   A          2.806629       2.806629
 1701   A          2.807146       2.807146
 1702   A          2.807465       2.807465
 1703   A          2.807466       2.807466
 1704   A          2.807718       2.807718
 1705   A          2.808739       2.808739
 1706   A          2.811040       2.811040
 1707   A          2.811040       2.811040
 1708   A          2.813156       2.813156
 1709   A          2.813682       2.813682
 1710   A          2.814984       2.814984
 1711   A          2.815383       2.815383
 1712   A          2.815384       2.815384
 1713   A          2.816281       2.816281
 1714   A          2.816282       2.816282
 1715   A          2.816668       2.816668
 1716   A          2.816762       2.816762
 1717   A          2.818267       2.818267
 1718   A          2.818268       2.818268
 1719   A          2.821033       2.821033
 1720   A          2.821666       2.821666
 1721   A          2.821667       2.821667
 1722   A          2.822208       2.822208
 1723   A          2.823007       2.823007
 1724   A          2.823014       2.823014
 1725   A          2.824814       2.824814
 1726   A          2.826423       2.826423
 1727   A          2.826424       2.826424
 1728   A          2.826683       2.826683
 1729   A          2.829270       2.829270
 1730   A          2.829271       2.829271
 1731   A          2.829301       2.829301
 1732   A          2.830085       2.830085
 1733   A          2.831047       2.831047
 1734   A          2.831440       2.831440
 1735   A          2.833401       2.833401
 1736   A          2.833429       2.833429
 1737   A          2.833429       2.833429
 1738   A          2.833566       2.833566
 1739   A          2.833567       2.833567
 1740   A          2.834471       2.834471
 1741   A          2.834550       2.834550
 1742   A          2.835320       2.835320
 1743   A          2.835661       2.835661
 1744   A          2.835661       2.835661
 1745   A          2.838260       2.838260
 1746   A          2.838601       2.838601
 1747   A          2.838602       2.838602
 1748   A          2.839334       2.839334
 1749   A          2.841275       2.841275
 1750   A          2.842034       2.842034
 1751   A          2.842035       2.842035
 1752   A          2.842629       2.842629
 1753   A          2.842721       2.842721
 1754   A          2.842777       2.842777
 1755   A          2.844043       2.844043
 1756   A          2.844212       2.844212
 1757   A          2.844213       2.844213
 1758   A          2.845232       2.845232
 1759   A          2.846054       2.846054
 1760   A          2.846933       2.846933
 1761   A          2.847192       2.847192
 1762   A          2.847193       2.847193
 1763   A          2.847500       2.847500
 1764   A          2.847500       2.847500
 1765   A          2.847727       2.847727
 1766   A          2.848936       2.848936
 1767   A          2.849653       2.849653
 1768   A          2.850828       2.850828
 1769   A          2.851124       2.851124
 1770   A          2.851124       2.851124
 1771   A          2.852285       2.852285
 1772   A          2.852286       2.852286
 1773   A          2.853270       2.853270
 1774   A          2.853464       2.853464
 1775   A          2.854604       2.854604
 1776   A          2.854663       2.854663
 1777   A          2.854898       2.854898
 1778   A          2.854899       2.854899
 1779   A          2.854971       2.854971
 1780   A          2.855323       2.855323
 1781   A          2.856038       2.856038
 1782   A          2.856038       2.856038
 1783   A          2.856453       2.856453
 1784   A          2.856453       2.856453
 1785   A          2.857101       2.857101
 1786   A          2.857761       2.857761
 1787   A          2.857761       2.857761
 1788   A          2.858765       2.858765
 1789   A          2.859752       2.859752
 1790   A          2.859753       2.859753
 1791   A          2.860765       2.860765
 1792   A          2.861578       2.861578
 1793   A          2.861719       2.861719
 1794   A          2.861719       2.861719
 1795   A          2.862454       2.862454
 1796   A          2.863289       2.863289
 1797   A          2.863290       2.863290
 1798   A          2.863645       2.863645
 1799   A          2.863822       2.863822
 1800   A          2.863822       2.863822
 1801   A          2.863943       2.863943
 1802   A          2.864944       2.864944
 1803   A          2.865025       2.865025
 1804   A          2.865507       2.865507
 1805   A          2.866220       2.866220
 1806   A          2.866221       2.866221
 1807   A          2.866258       2.866258
 1808   A          2.866950       2.866950
 1809   A          2.867745       2.867745
 1810   A          2.867899       2.867899
 1811   A          2.867899       2.867899
 1812   A          2.868283       2.868283
 1813   A          2.868694       2.868694
 1814   A          2.868695       2.868695
 1815   A          2.868844       2.868844
 1816   A          2.869123       2.869123
 1817   A          2.869738       2.869738
 1818   A          2.870296       2.870296
 1819   A          2.870296       2.870296
 1820   A          2.870323       2.870323
 1821   A          2.871055       2.871055
 1822   A          2.872840       2.872840
 1823   A          2.873154       2.873154
 1824   A          2.873346       2.873346
 1825   A          2.873347       2.873347
 1826   A          2.873560       2.873560
 1827   A          2.873560       2.873560
 1828   A          2.875751       2.875751
 1829   A          2.876017       2.876017
 1830   A          2.876533       2.876533
 1831   A          2.876724       2.876724
 1832   A          2.876725       2.876725
 1833   A          2.877126       2.877126
 1834   A          2.877141       2.877141
 1835   A          2.877577       2.877577
 1836   A          2.877577       2.877577
 1837   A          2.878923       2.878923
 1838   A          2.879970       2.879970
 1839   A          2.881056       2.881056
 1840   A          2.881056       2.881056
 1841   A          2.882920       2.882920
 1842   A          2.883185       2.883185
 1843   A          2.883515       2.883515
 1844   A          2.883857       2.883857
 1845   A          2.883857       2.883857
 1846   A          2.885464       2.885464
 1847   A          2.886700       2.886700
 1848   A          2.886701       2.886701
 1849   A          2.886933       2.886933
 1850   A          2.891991       2.891991
 1851   A          2.892384       2.892384
 1852   A          2.892385       2.892385
 1853   A          2.894190       2.894190
 1854   A          2.894444       2.894444
 1855   A          2.897172       2.897172
 1856   A          2.897173       2.897173
 1857   A          2.898290       2.898290
 1858   A          2.898290       2.898290
 1859   A          2.899996       2.899996
 1860   A          2.904474       2.904474
 1861   A          2.905343       2.905343
 1862   A          2.905344       2.905344
 1863   A          2.906234       2.906234
 1864   A          2.908344       2.908344
 1865   A          2.911326       2.911326
 1866   A          2.912078       2.912078
 1867   A          2.912078       2.912078
 1868   A          2.914198       2.914198
 1869   A          2.927067       2.927067
 1870   A          2.927450       2.927450
 1871   A          2.927973       2.927973
 1872   A          2.927973       2.927973
 1873   A          2.930383       2.930383
 1874   A          2.935683       2.935683
 1875   A          2.935684       2.935684
 1876   A          2.951601       2.951601
 1877   A          2.961319       2.961319
 1878   A          2.967985       2.967985
 1879   A          2.975972       2.975972
 1880   A          2.975974       2.975974
 1881   A          2.977537       2.977537
 1882   A          2.977945       2.977945
 1883   A          2.996617       2.996617
 1884   A          2.996617       2.996617
 1885   A          3.022190       3.022190
 1886   A          3.056714       3.056714
 
 RETURNING FROM SCF ALGORITHM
 ======================================================================
 
 ************************ 2021-10-17 20:17:12 *************************
                      Normal termination of mrcc.
 **********************************************************************
