
                                 *****************
                                 * O   R   C   A *
                                 *****************

                                            #,                                       
                                            ###                                      
                                            ####                                     
                                            #####                                    
                                            ######                                   
                                           ########,                                 
                                     ,,################,,,,,                         
                               ,,#################################,,                 
                          ,,##########################################,,             
                       ,#########################################, ''#####,          
                    ,#############################################,,   '####,        
                  ,##################################################,,,,####,       
                ,###########''''           ''''###############################       
              ,#####''   ,,,,##########,,,,          '''####'''          '####       
            ,##' ,,,,###########################,,,                        '##       
           ' ,,###''''                  '''############,,,                           
         ,,##''                                '''############,,,,        ,,,,,,###''
      ,#''                                            '''#######################'''  
     '                                                          ''''####''''         
             ,#######,   #######,   ,#######,      ##                                
            ,#'     '#,  ##    ##  ,#'     '#,    #''#        ######   ,####,        
            ##       ##  ##   ,#'  ##            #'  '#       #        #'  '#        
            ##       ##  #######   ##           ,######,      #####,   #    #        
            '#,     ,#'  ##    ##  '#,     ,#' ,#      #,         ##   #,  ,#        
             '#######'   ##     ##  '#######'  #'      '#     #####' # '####'        



                  #######################################################
                  #                        -***-                        #
                  #          Department of theory and spectroscopy      #
                  #    Directorship and core code : Frank Neese         #
                  #        Max Planck Institute fuer Kohlenforschung    #
                  #                Kaiser Wilhelm Platz 1               #
                  #                 D-45470 Muelheim/Ruhr               #
                  #                      Germany                        #
                  #                                                     #
                  #                  All rights reserved                #
                  #                        -***-                        #
                  #######################################################


                         Program Version 5.0.1 -  RELEASE  -


 With contributions from (in alphabetic order):
   Daniel Aravena         : Magnetic Suceptibility
   Michael Atanasov       : Ab Initio Ligand Field Theory (pilot matlab implementation)
   Alexander A. Auer      : GIAO ZORA, VPT2 properties, NMR spectrum
   Ute Becker             : Parallelization
   Giovanni Bistoni       : ED, misc. LED, open-shell LED, HFLD
   Martin Brehm           : Molecular dynamics
   Dmytro Bykov           : SCF Hessian
   Vijay G. Chilkuri      : MRCI spin determinant printing, contributions to CSF-ICE
   Dipayan Datta          : RHF DLPNO-CCSD density
   Achintya Kumar Dutta   : EOM-CC, STEOM-CC
   Dmitry Ganyushin       : Spin-Orbit,Spin-Spin,Magnetic field MRCI
   Miquel Garcia          : C-PCM and meta-GGA Hessian, CC/C-PCM, Gaussian charge scheme
   Yang Guo               : DLPNO-NEVPT2, F12-NEVPT2, CIM, IAO-localization
   Andreas Hansen         : Spin unrestricted coupled pair/coupled cluster methods
   Benjamin Helmich-Paris : MC-RPA, TRAH-SCF, COSX integrals
   Lee Huntington         : MR-EOM, pCC
   Robert Izsak           : Overlap fitted RIJCOSX, COSX-SCS-MP3, EOM
   Marcus Kettner         : VPT2
   Christian Kollmar      : KDIIS, OOCD, Brueckner-CCSD(T), CCSD density, CASPT2, CASPT2-K
   Simone Kossmann        : Meta GGA functionals, TD-DFT gradient, OOMP2, MP2 Hessian
   Martin Krupicka        : Initial AUTO-CI
   Lucas Lang             : DCDCAS
   Marvin Lechner         : AUTO-CI (C++ implementation), FIC-MRCC
   Dagmar Lenk            : GEPOL surface, SMD
   Dimitrios Liakos       : Extrapolation schemes; Compound Job, initial MDCI parallelization
   Dimitrios Manganas     : Further ROCIS development; embedding schemes
   Dimitrios Pantazis     : SARC Basis sets
   Anastasios Papadopoulos: AUTO-CI, single reference methods and gradients
   Taras Petrenko         : DFT Hessian,TD-DFT gradient, ASA, ECA, R-Raman, ABS, FL, XAS/XES, NRVS
   Peter Pinski           : DLPNO-MP2, DLPNO-MP2 Gradient
   Christoph Reimann      : Effective Core Potentials
   Marius Retegan         : Local ZFS, SOC
   Christoph Riplinger    : Optimizer, TS searches, QM/MM, DLPNO-CCSD(T), (RO)-DLPNO pert. Triples
   Tobias Risthaus        : Range-separated hybrids, TD-DFT gradient, RPA, STAB
   Michael Roemelt        : Original ROCIS implementation
   Masaaki Saitow         : Open-shell DLPNO-CCSD energy and density
   Barbara Sandhoefer     : DKH picture change effects
   Avijit Sen             : IP-ROCIS
   Kantharuban Sivalingam : CASSCF convergence, NEVPT2, FIC-MRCI
   Bernardo de Souza      : ESD, SOC TD-DFT
   Georgi Stoychev        : AutoAux, RI-MP2 NMR, DLPNO-MP2 response
   Willem Van den Heuvel  : Paramagnetic NMR
   Boris Wezisla          : Elementary symmetry handling
   Frank Wennmohs         : Technical directorship


 We gratefully acknowledge several colleagues who have allowed us to
 interface, adapt or use parts of their codes:
   Stefan Grimme, W. Hujo, H. Kruse, P. Pracht,  : VdW corrections, initial TS optimization,
                  C. Bannwarth, S. Ehlert          DFT functionals, gCP, sTDA/sTD-DF
   Ed Valeev, F. Pavosevic, A. Kumar             : LibInt (2-el integral package), F12 methods
   Garnet Chan, S. Sharma, J. Yang, R. Olivares  : DMRG
   Ulf Ekstrom                                   : XCFun DFT Library
   Mihaly Kallay                                 : mrcc  (arbitrary order and MRCC methods)
   Jiri Pittner, Ondrej Demel                    : Mk-CCSD
   Frank Weinhold                                : gennbo (NPA and NBO analysis)
   Christopher J. Cramer and Donald G. Truhlar   : smd solvation model
   Lars Goerigk                                  : TD-DFT with DH, B97 family of functionals
   V. Asgeirsson, H. Jonsson                     : NEB implementation
   FAccTs GmbH                                   : IRC, NEB, NEB-TS, DLPNO-Multilevel, CI-OPT
                                                   MM, QMMM, 2- and 3-layer-ONIOM, Crystal-QMMM,
                                                   LR-CPCM, SF, NACMEs, symmetry and pop. for TD-DFT,
                                                   nearIR, NL-DFT gradient (VV10), updates on ESD,
                                                   ML-optimized integration grids
   S Lehtola, MJT Oliveira, MAL Marques          : LibXC Library
   Liviu Ungur et al                             : ANISO software


 Your calculation uses the libint2 library for the computation of 2-el integrals
 For citations please refer to: http://libint.valeyev.net

 Your ORCA version has been built with support for libXC version: 5.1.0
 For citations please refer to: https://tddft.org/programs/libxc/

 This ORCA versions uses:
   CBLAS   interface :  Fast vector & matrix operations
   LAPACKE interface :  Fast linear algebra routines
   SCALAPACK package :  Parallel linear algebra routines
   Shared memory     :  Shared parallel matrices
   BLAS/LAPACK       :  OpenBLAS 0.3.15  USE64BITINT DYNAMIC_ARCH NO_AFFINITY SkylakeX SINGLE_THREADED
        Core in use  :  SkylakeX
   Copyright (c) 2011-2014, The OpenBLAS Project


Setting NCore(Ti) from 10 to 18
Setting NCore(O ) from 2 to 2
SCAN-COORDS
================================================================================

----- Orbital basis set information -----
Your calculation utilizes the basis: def2-QZVPP
   F. Weigend and R. Ahlrichs, Phys. Chem. Chem. Phys. 7, 3297 (2005).

----- AuxJ basis set information -----
Your calculation utilizes the auxiliary basis: def2/J
   F. Weigend, Phys. Chem. Chem. Phys. 8, 1057 (2006).

----- AuxC basis set information -----
Your calculation utilizes the auxiliary basis: def2-QZVPP/C
  H-La, Hf-Rn : A. Hellweg, C. Hattig, S. Hofener and W. Klopper, Theor. Chem. Acc. 117, 587 (2007).
        Ce-Lu : J. Chmela and M. E. Harding, Mol. Phys. (2018).

================================================================================
                                        WARNINGS
                       Please study these warnings very carefully!
================================================================================

WARNING: The globally-selected AuxJ basis set is optimized for use with ECPs
         Make sure a suitable alternative is explicitly given all heavy elements (Z>36)

WARNING: No MP2 level density has been requested!
         To caclulate MP2 level properties use
         %mp2 Density relaxed end
         or
         %mp2 Density unrelaxed end

WARNING: Post HF methods need fully converged wavefunctions
  ===> : Setting SCFConvForced true
         You can overwrite this default with %scf ConvForced false 


INFO   : the flag for use of the SHARK integral package has been found!

================================================================================
                                       INPUT FILE
================================================================================
NAME = orca.inp
|  1> ! VeryTightSCF DLPNO-MP2 NormalPNO RIJCOSX SlowConv DIIS
|  2> %maxcore 72000
|  3> %pal
|  4> nprocs 16
|  5> end
|  6> %pointcharges "orca.bq"
|  7> %method
|  8> Method hf
|  9> RI on
| 10> RunTyp Energy
| 11> NewNCore Ti 18 end
| 12> NewNCore O 2 end
| 13> end
| 14> %basis
| 15> Basis "def2-QZVPP"
| 16> Aux "def2/J"
| 17> AuxC "def2-QZVPP/C"
| 18> end
| 19> %scf
| 20> HFTyp rhf
| 21> Guess Hueckel
| 22> AutoStart True
| 23> SCFMode Direct
| 24> MaxIter 1000
| 25> sthresh 1e-6
| 26> AutoTRAHIter 100
| 27> end
| 28> %coords
| 29> CTyp xyz
| 30> Mult 1
| 31> Units angs
| 32>   Charge -12
| 33>   coords
| 34> O                       0.00000000000    0.00000000000    0.00000000000
| 35> Ti                      0.00000536997    1.48055149700   -1.06892606631
| 36> Ti                      0.00000552101   -1.48055312386   -1.06892138720
| 37> O                       0.00000442396   -0.00000111986   -2.54840301833
| 38> O                      -2.03525914147    1.48054518365   -1.11149385695
| 39> O                       2.03526534753    1.48054527935   -1.11149163807
| 40> O                       2.03526471018   -1.48054700097   -1.11149295951
| 41> O                      -2.03525907462   -1.48054722666   -1.11149503385
| 42> O                      -0.00000037752    2.96109155033   -0.00000271770
| 43> O                      -0.00000037752   -2.96109552160   -0.00000271770
| 44> O                       0.00000449994    2.96109199200   -2.54840438198
| 45> O                       0.00000449994   -2.96109507993   -2.54840438198
| 46> Ti>    4.00000000000    3.25402319191   -0.00000112036   -1.42716202606
| 47> NewECP
| 48> N_core 0
| 49>   lmax f
| 50>   s 2
| 51>    1      0.860000       9.191690  2
| 52>    2      0.172000       0.008301  2
| 53>   p 2
| 54>    1      0.860000      17.997720  2
| 55>    2      0.172000      -0.032600  2
| 56>   d 2
| 57>    1      1.600000      -9.504310  2
| 58>    2      0.320000      -0.151370  2
| 59>   f 1
| 60>    1      1.000000000    0.000000000 2
| 61> end
| 62> Ti>    4.00000000000   -3.25401610555   -0.00000112036   -1.42716202606
| 63> NewECP
| 64> N_core 0
| 65>   lmax f
| 66>   s 2
| 67>    1      0.860000       9.191690  2
| 68>    2      0.172000       0.008301  2
| 69>   p 2
| 70>    1      0.860000      17.997720  2
| 71>    2      0.172000      -0.032600  2
| 72>   d 2
| 73>    1      1.600000      -9.504310  2
| 74>    2      0.320000      -0.151370  2
| 75>   f 1
| 76>    1      1.000000000    0.000000000 2
| 77> end
| 78> Ti>    4.00000000000   -0.00005220374   -0.00000071014   -4.41288396045
| 79> NewECP
| 80> N_core 0
| 81>   lmax f
| 82>   s 2
| 83>    1      0.860000       9.191690  2
| 84>    2      0.172000       0.008301  2
| 85>   p 2
| 86>    1      0.860000      17.997720  2
| 87>    2      0.172000      -0.032600  2
| 88>   d 2
| 89>    1      1.600000      -9.504310  2
| 90>    2      0.320000      -0.151370  2
| 91>   f 1
| 92>    1      1.000000000    0.000000000 2
| 93> end
| 94> Ti>    4.00000000000    0.00000552101    4.44163394806   -1.06892138720
| 95> NewECP
| 96> N_core 0
| 97>   lmax f
| 98>   s 2
| 99>    1      0.860000       9.191690  2
|100>    2      0.172000       0.008301  2
|101>   p 2
|102>    1      0.860000      17.997720  2
|103>    2      0.172000      -0.032600  2
|104>   d 2
|105>    1      1.600000      -9.504310  2
|106>    2      0.320000      -0.151370  2
|107>   f 1
|108>    1      1.000000000    0.000000000 2
|109> end
|110> Ti>    4.00000000000    0.00000536997   -4.44163557493   -1.06892606631
|111> NewECP
|112> N_core 0
|113>   lmax f
|114>   s 2
|115>    1      0.860000       9.191690  2
|116>    2      0.172000       0.008301  2
|117>   p 2
|118>    1      0.860000      17.997720  2
|119>    2      0.172000      -0.032600  2
|120>   d 2
|121>    1      1.600000      -9.504310  2
|122>    2      0.320000      -0.151370  2
|123>   f 1
|124>    1      1.000000000    0.000000000 2
|125> end
|126> Ti>    4.00000000000   -3.25401668289    2.96109302555   -1.42716235830
|127> NewECP
|128> N_core 0
|129>   lmax f
|130>   s 2
|131>    1      0.860000       9.191690  2
|132>    2      0.172000       0.008301  2
|133>   p 2
|134>    1      0.860000      17.997720  2
|135>    2      0.172000      -0.032600  2
|136>   d 2
|137>    1      1.600000      -9.504310  2
|138>    2      0.320000      -0.151370  2
|139>   f 1
|140>    1      1.000000000    0.000000000 2
|141> end
|142> Ti>    4.00000000000    3.25402261457    2.96109302555   -1.42716235830
|143> NewECP
|144> N_core 0
|145>   lmax f
|146>   s 2
|147>    1      0.860000       9.191690  2
|148>    2      0.172000       0.008301  2
|149>   p 2
|150>    1      0.860000      17.997720  2
|151>    2      0.172000      -0.032600  2
|152>   d 2
|153>    1      1.600000      -9.504310  2
|154>    2      0.320000      -0.151370  2
|155>   f 1
|156>    1      1.000000000    0.000000000 2
|157> end
|158> Ti>    4.00000000000    3.25402261457   -2.96109404638   -1.42716235830
|159> NewECP
|160> N_core 0
|161>   lmax f
|162>   s 2
|163>    1      0.860000       9.191690  2
|164>    2      0.172000       0.008301  2
|165>   p 2
|166>    1      0.860000      17.997720  2
|167>    2      0.172000      -0.032600  2
|168>   d 2
|169>    1      1.600000      -9.504310  2
|170>    2      0.320000      -0.151370  2
|171>   f 1
|172>    1      1.000000000    0.000000000 2
|173> end
|174> Ti>    4.00000000000   -3.25401668289   -2.96109404638   -1.42716235830
|175> NewECP
|176> N_core 0
|177>   lmax f
|178>   s 2
|179>    1      0.860000       9.191690  2
|180>    2      0.172000       0.008301  2
|181>   p 2
|182>    1      0.860000      17.997720  2
|183>    2      0.172000      -0.032600  2
|184>   d 2
|185>    1      1.600000      -9.504310  2
|186>    2      0.320000      -0.151370  2
|187>   f 1
|188>    1      1.000000000    0.000000000 2
|189> end
|190> Ti>    4.00000000000   -0.00005206359    2.96109301637   -4.41288206312
|191> NewECP
|192> N_core 0
|193>   lmax f
|194>   s 2
|195>    1      0.860000       9.191690  2
|196>    2      0.172000       0.008301  2
|197>   p 2
|198>    1      0.860000      17.997720  2
|199>    2      0.172000      -0.032600  2
|200>   d 2
|201>    1      1.600000      -9.504310  2
|202>    2      0.320000      -0.151370  2
|203>   f 1
|204>    1      1.000000000    0.000000000 2
|205> end
|206> Ti>    4.00000000000   -0.00005206359   -2.96109405556   -4.41288206312
|207> NewECP
|208> N_core 0
|209>   lmax f
|210>   s 2
|211>    1      0.860000       9.191690  2
|212>    2      0.172000       0.008301  2
|213>   p 2
|214>    1      0.860000      17.997720  2
|215>    2      0.172000      -0.032600  2
|216>   d 2
|217>    1      1.600000      -9.504310  2
|218>    2      0.320000      -0.151370  2
|219>   f 1
|220>    1      1.000000000    0.000000000 2
|221> end
|222> Ti>    4.00000000000    3.25395215162    1.48054533538   -4.59991327640
|223> NewECP
|224> N_core 0
|225>   lmax f
|226>   s 2
|227>    1      0.860000       9.191690  2
|228>    2      0.172000       0.008301  2
|229>   p 2
|230>    1      0.860000      17.997720  2
|231>    2      0.172000      -0.032600  2
|232>   d 2
|233>    1      1.600000      -9.504310  2
|234>    2      0.320000      -0.151370  2
|235>   f 1
|236>    1      1.000000000    0.000000000 2
|237> end
|238> Ti>    4.00000000000    3.25395195581   -1.48054722422   -4.59991284715
|239> NewECP
|240> N_core 0
|241>   lmax f
|242>   s 2
|243>    1      0.860000       9.191690  2
|244>    2      0.172000       0.008301  2
|245>   p 2
|246>    1      0.860000      17.997720  2
|247>    2      0.172000      -0.032600  2
|248>   d 2
|249>    1      1.600000      -9.504310  2
|250>    2      0.320000      -0.151370  2
|251>   f 1
|252>    1      1.000000000    0.000000000 2
|253> end
|254> Ti>    4.00000000000   -3.25408714585    1.48054533538   -4.59991327640
|255> NewECP
|256> N_core 0
|257>   lmax f
|258>   s 2
|259>    1      0.860000       9.191690  2
|260>    2      0.172000       0.008301  2
|261>   p 2
|262>    1      0.860000      17.997720  2
|263>    2      0.172000      -0.032600  2
|264>   d 2
|265>    1      1.600000      -9.504310  2
|266>    2      0.320000      -0.151370  2
|267>   f 1
|268>    1      1.000000000    0.000000000 2
|269> end
|270> Ti>    4.00000000000   -3.25408734165   -1.48054722422   -4.59991284715
|271> NewECP
|272> N_core 0
|273>   lmax f
|274>   s 2
|275>    1      0.860000       9.191690  2
|276>    2      0.172000       0.008301  2
|277>   p 2
|278>    1      0.860000      17.997720  2
|279>    2      0.172000      -0.032600  2
|280>   d 2
|281>    1      1.600000      -9.504310  2
|282>    2      0.320000      -0.151370  2
|283>   f 1
|284>    1      1.000000000    0.000000000 2
|285> end
|286> Ti>    4.00000000000   -6.50803392749    1.48055149700   -1.06892606631
|287> NewECP
|288> N_core 0
|289>   lmax f
|290>   s 2
|291>    1      0.860000       9.191690  2
|292>    2      0.172000       0.008301  2
|293>   p 2
|294>    1      0.860000      17.997720  2
|295>    2      0.172000      -0.032600  2
|296>   d 2
|297>    1      1.600000      -9.504310  2
|298>    2      0.320000      -0.151370  2
|299>   f 1
|300>    1      1.000000000    0.000000000 2
|301> end
|302> Ti>    4.00000000000    6.50804466744    1.48055149700   -1.06892606631
|303> NewECP
|304> N_core 0
|305>   lmax f
|306>   s 2
|307>    1      0.860000       9.191690  2
|308>    2      0.172000       0.008301  2
|309>   p 2
|310>    1      0.860000      17.997720  2
|311>    2      0.172000      -0.032600  2
|312>   d 2
|313>    1      1.600000      -9.504310  2
|314>    2      0.320000      -0.151370  2
|315>   f 1
|316>    1      1.000000000    0.000000000 2
|317> end
|318> Ti>    4.00000000000    6.50804481848   -1.48055312386   -1.06892138720
|319> NewECP
|320> N_core 0
|321>   lmax f
|322>   s 2
|323>    1      0.860000       9.191690  2
|324>    2      0.172000       0.008301  2
|325>   p 2
|326>    1      0.860000      17.997720  2
|327>    2      0.172000      -0.032600  2
|328>   d 2
|329>    1      1.600000      -9.504310  2
|330>    2      0.320000      -0.151370  2
|331>   f 1
|332>    1      1.000000000    0.000000000 2
|333> end
|334> Ti>    4.00000000000   -6.50803377645   -1.48055312386   -1.06892138720
|335> NewECP
|336> N_core 0
|337>   lmax f
|338>   s 2
|339>    1      0.860000       9.191690  2
|340>    2      0.172000       0.008301  2
|341>   p 2
|342>    1      0.860000      17.997720  2
|343>    2      0.172000      -0.032600  2
|344>   d 2
|345>    1      1.600000      -9.504310  2
|346>    2      0.320000      -0.151370  2
|347>   f 1
|348>    1      1.000000000    0.000000000 2
|349> end
|350> Ti>    4.00000000000   -3.25401610555    5.92218595157   -1.42716202606
|351> NewECP
|352> N_core 0
|353>   lmax f
|354>   s 2
|355>    1      0.860000       9.191690  2
|356>    2      0.172000       0.008301  2
|357>   p 2
|358>    1      0.860000      17.997720  2
|359>    2      0.172000      -0.032600  2
|360>   d 2
|361>    1      1.600000      -9.504310  2
|362>    2      0.320000      -0.151370  2
|363>   f 1
|364>    1      1.000000000    0.000000000 2
|365> end
|366> Ti>    4.00000000000    3.25402319191    5.92218595157   -1.42716202606
|367> NewECP
|368> N_core 0
|369>   lmax f
|370>   s 2
|371>    1      0.860000       9.191690  2
|372>    2      0.172000       0.008301  2
|373>   p 2
|374>    1      0.860000      17.997720  2
|375>    2      0.172000      -0.032600  2
|376>   d 2
|377>    1      1.600000      -9.504310  2
|378>    2      0.320000      -0.151370  2
|379>   f 1
|380>    1      1.000000000    0.000000000 2
|381> end
|382> Ti>    4.00000000000    3.25402319191   -5.92218819228   -1.42716202606
|383> NewECP
|384> N_core 0
|385>   lmax f
|386>   s 2
|387>    1      0.860000       9.191690  2
|388>    2      0.172000       0.008301  2
|389>   p 2
|390>    1      0.860000      17.997720  2
|391>    2      0.172000      -0.032600  2
|392>   d 2
|393>    1      1.600000      -9.504310  2
|394>    2      0.320000      -0.151370  2
|395>   f 1
|396>    1      1.000000000    0.000000000 2
|397> end
|398> Ti>    4.00000000000   -3.25401610555   -5.92218819228   -1.42716202606
|399> NewECP
|400> N_core 0
|401>   lmax f
|402>   s 2
|403>    1      0.860000       9.191690  2
|404>    2      0.172000       0.008301  2
|405>   p 2
|406>    1      0.860000      17.997720  2
|407>    2      0.172000      -0.032600  2
|408>   d 2
|409>    1      1.600000      -9.504310  2
|410>    2      0.320000      -0.151370  2
|411>   f 1
|412>    1      1.000000000    0.000000000 2
|413> end
|414> Ti>    4.00000000000    3.25395195581    4.44163984770   -4.59991284715
|415> NewECP
|416> N_core 0
|417>   lmax f
|418>   s 2
|419>    1      0.860000       9.191690  2
|420>    2      0.172000       0.008301  2
|421>   p 2
|422>    1      0.860000      17.997720  2
|423>    2      0.172000      -0.032600  2
|424>   d 2
|425>    1      1.600000      -9.504310  2
|426>    2      0.320000      -0.151370  2
|427>   f 1
|428>    1      1.000000000    0.000000000 2
|429> end
|430> Ti>    4.00000000000    3.25395215162   -4.44164173655   -4.59991327640
|431> NewECP
|432> N_core 0
|433>   lmax f
|434>   s 2
|435>    1      0.860000       9.191690  2
|436>    2      0.172000       0.008301  2
|437>   p 2
|438>    1      0.860000      17.997720  2
|439>    2      0.172000      -0.032600  2
|440>   d 2
|441>    1      1.600000      -9.504310  2
|442>    2      0.320000      -0.151370  2
|443>   f 1
|444>    1      1.000000000    0.000000000 2
|445> end
|446> Ti>    4.00000000000   -3.25408734165    4.44163984770   -4.59991284715
|447> NewECP
|448> N_core 0
|449>   lmax f
|450>   s 2
|451>    1      0.860000       9.191690  2
|452>    2      0.172000       0.008301  2
|453>   p 2
|454>    1      0.860000      17.997720  2
|455>    2      0.172000      -0.032600  2
|456>   d 2
|457>    1      1.600000      -9.504310  2
|458>    2      0.320000      -0.151370  2
|459>   f 1
|460>    1      1.000000000    0.000000000 2
|461> end
|462> Ti>    4.00000000000   -3.25408714585   -4.44164173655   -4.59991327640
|463> NewECP
|464> N_core 0
|465>   lmax f
|466>   s 2
|467>    1      0.860000       9.191690  2
|468>    2      0.172000       0.008301  2
|469>   p 2
|470>    1      0.860000      17.997720  2
|471>    2      0.172000      -0.032600  2
|472>   d 2
|473>    1      1.600000      -9.504310  2
|474>    2      0.320000      -0.151370  2
|475>   f 1
|476>    1      1.000000000    0.000000000 2
|477> end
|478> Ti>    4.00000000000   -0.00005220374    5.92218636178   -4.41288396045
|479> NewECP
|480> N_core 0
|481>   lmax f
|482>   s 2
|483>    1      0.860000       9.191690  2
|484>    2      0.172000       0.008301  2
|485>   p 2
|486>    1      0.860000      17.997720  2
|487>    2      0.172000      -0.032600  2
|488>   d 2
|489>    1      1.600000      -9.504310  2
|490>    2      0.320000      -0.151370  2
|491>   f 1
|492>    1      1.000000000    0.000000000 2
|493> end
|494> Ti>    4.00000000000   -0.00005220374   -5.92218778207   -4.41288396045
|495> NewECP
|496> N_core 0
|497>   lmax f
|498>   s 2
|499>    1      0.860000       9.191690  2
|500>    2      0.172000       0.008301  2
|501>   p 2
|502>    1      0.860000      17.997720  2
|503>    2      0.172000      -0.032600  2
|504>   d 2
|505>    1      1.600000      -9.504310  2
|506>    2      0.320000      -0.151370  2
|507>   f 1
|508>    1      1.000000000    0.000000000 2
|509> end
|510> Ti>    4.00000000000    0.00000536997    7.40273856892   -1.06892606631
|511> NewECP
|512> N_core 0
|513>   lmax f
|514>   s 2
|515>    1      0.860000       9.191690  2
|516>    2      0.172000       0.008301  2
|517>   p 2
|518>    1      0.860000      17.997720  2
|519>    2      0.172000      -0.032600  2
|520>   d 2
|521>    1      1.600000      -9.504310  2
|522>    2      0.320000      -0.151370  2
|523>   f 1
|524>    1      1.000000000    0.000000000 2
|525> end
|526> Ti>    4.00000000000    0.00000552101   -7.40274019579   -1.06892138720
|527> NewECP
|528> N_core 0
|529>   lmax f
|530>   s 2
|531>    1      0.860000       9.191690  2
|532>    2      0.172000       0.008301  2
|533>   p 2
|534>    1      0.860000      17.997720  2
|535>    2      0.172000      -0.032600  2
|536>   d 2
|537>    1      1.600000      -9.504310  2
|538>    2      0.320000      -0.151370  2
|539>   f 1
|540>    1      1.000000000    0.000000000 2
|541> end
|542> Ti>    4.00000000000    6.50798709372   -0.00000071014   -4.41288396045
|543> NewECP
|544> N_core 0
|545>   lmax f
|546>   s 2
|547>    1      0.860000       9.191690  2
|548>    2      0.172000       0.008301  2
|549>   p 2
|550>    1      0.860000      17.997720  2
|551>    2      0.172000      -0.032600  2
|552>   d 2
|553>    1      1.600000      -9.504310  2
|554>    2      0.320000      -0.151370  2
|555>   f 1
|556>    1      1.000000000    0.000000000 2
|557> end
|558> Ti>    4.00000000000   -6.50809150121   -0.00000071014   -4.41288396045
|559> NewECP
|560> N_core 0
|561>   lmax f
|562>   s 2
|563>    1      0.860000       9.191690  2
|564>    2      0.172000       0.008301  2
|565>   p 2
|566>    1      0.860000      17.997720  2
|567>    2      0.172000      -0.032600  2
|568>   d 2
|569>    1      1.600000      -9.504310  2
|570>    2      0.320000      -0.151370  2
|571>   f 1
|572>    1      1.000000000    0.000000000 2
|573> end
|574> Ti>    4.00000000000   -0.00000306899    1.48054576566   -7.78540932970
|575> NewECP
|576> N_core 0
|577>   lmax f
|578>   s 2
|579>    1      0.860000       9.191690  2
|580>    2      0.172000       0.008301  2
|581>   p 2
|582>    1      0.860000      17.997720  2
|583>    2      0.172000      -0.032600  2
|584>   d 2
|585>    1      1.600000      -9.504310  2
|586>    2      0.320000      -0.151370  2
|587>   f 1
|588>    1      1.000000000    0.000000000 2
|589> end
|590> Ti>    4.00000000000   -0.00000306899   -1.48054777030   -7.78540932970
|591> NewECP
|592> N_core 0
|593>   lmax f
|594>   s 2
|595>    1      0.860000       9.191690  2
|596>    2      0.172000       0.008301  2
|597>   p 2
|598>    1      0.860000      17.997720  2
|599>    2      0.172000      -0.032600  2
|600>   d 2
|601>    1      1.600000      -9.504310  2
|602>    2      0.320000      -0.151370  2
|603>   f 1
|604>    1      1.000000000    0.000000000 2
|605> end
|606> Ti>    4.00000000000   -6.50803377645    4.44163394806   -1.06892138720
|607> NewECP
|608> N_core 0
|609>   lmax f
|610>   s 2
|611>    1      0.860000       9.191690  2
|612>    2      0.172000       0.008301  2
|613>   p 2
|614>    1      0.860000      17.997720  2
|615>    2      0.172000      -0.032600  2
|616>   d 2
|617>    1      1.600000      -9.504310  2
|618>    2      0.320000      -0.151370  2
|619>   f 1
|620>    1      1.000000000    0.000000000 2
|621> end
|622> Ti>    4.00000000000    6.50804481848    4.44163394806   -1.06892138720
|623> NewECP
|624> N_core 0
|625>   lmax f
|626>   s 2
|627>    1      0.860000       9.191690  2
|628>    2      0.172000       0.008301  2
|629>   p 2
|630>    1      0.860000      17.997720  2
|631>    2      0.172000      -0.032600  2
|632>   d 2
|633>    1      1.600000      -9.504310  2
|634>    2      0.320000      -0.151370  2
|635>   f 1
|636>    1      1.000000000    0.000000000 2
|637> end
|638> Ti>    4.00000000000    6.50804466744   -4.44163557493   -1.06892606631
|639> NewECP
|640> N_core 0
|641>   lmax f
|642>   s 2
|643>    1      0.860000       9.191690  2
|644>    2      0.172000       0.008301  2
|645>   p 2
|646>    1      0.860000      17.997720  2
|647>    2      0.172000      -0.032600  2
|648>   d 2
|649>    1      1.600000      -9.504310  2
|650>    2      0.320000      -0.151370  2
|651>   f 1
|652>    1      1.000000000    0.000000000 2
|653> end
|654> Ti>    4.00000000000   -6.50803392749   -4.44163557493   -1.06892606631
|655> NewECP
|656> N_core 0
|657>   lmax f
|658>   s 2
|659>    1      0.860000       9.191690  2
|660>    2      0.172000       0.008301  2
|661>   p 2
|662>    1      0.860000      17.997720  2
|663>    2      0.172000      -0.032600  2
|664>   d 2
|665>    1      1.600000      -9.504310  2
|666>    2      0.320000      -0.151370  2
|667>   f 1
|668>    1      1.000000000    0.000000000 2
|669> end
|670> Ti>    4.00000000000    6.50798723387    2.96109301637   -4.41288206312
|671> NewECP
|672> N_core 0
|673>   lmax f
|674>   s 2
|675>    1      0.860000       9.191690  2
|676>    2      0.172000       0.008301  2
|677>   p 2
|678>    1      0.860000      17.997720  2
|679>    2      0.172000      -0.032600  2
|680>   d 2
|681>    1      1.600000      -9.504310  2
|682>    2      0.320000      -0.151370  2
|683>   f 1
|684>    1      1.000000000    0.000000000 2
|685> end
|686> Ti>    4.00000000000    6.50798723387   -2.96109405556   -4.41288206312
|687> NewECP
|688> N_core 0
|689>   lmax f
|690>   s 2
|691>    1      0.860000       9.191690  2
|692>    2      0.172000       0.008301  2
|693>   p 2
|694>    1      0.860000      17.997720  2
|695>    2      0.172000      -0.032600  2
|696>   d 2
|697>    1      1.600000      -9.504310  2
|698>    2      0.320000      -0.151370  2
|699>   f 1
|700>    1      1.000000000    0.000000000 2
|701> end
|702> Ti>    4.00000000000   -6.50809136106    2.96109301637   -4.41288206312
|703> NewECP
|704> N_core 0
|705>   lmax f
|706>   s 2
|707>    1      0.860000       9.191690  2
|708>    2      0.172000       0.008301  2
|709>   p 2
|710>    1      0.860000      17.997720  2
|711>    2      0.172000      -0.032600  2
|712>   d 2
|713>    1      1.600000      -9.504310  2
|714>    2      0.320000      -0.151370  2
|715>   f 1
|716>    1      1.000000000    0.000000000 2
|717> end
|718> Ti>    4.00000000000   -6.50809136106   -2.96109405556   -4.41288206312
|719> NewECP
|720> N_core 0
|721>   lmax f
|722>   s 2
|723>    1      0.860000       9.191690  2
|724>    2      0.172000       0.008301  2
|725>   p 2
|726>    1      0.860000      17.997720  2
|727>    2      0.172000      -0.032600  2
|728>   d 2
|729>    1      1.600000      -9.504310  2
|730>    2      0.320000      -0.151370  2
|731>   f 1
|732>    1      1.000000000    0.000000000 2
|733> end
|734> Ti>    4.00000000000    3.25401657974   -0.00000100232   -7.78540932970
|735> NewECP
|736> N_core 0
|737>   lmax f
|738>   s 2
|739>    1      0.860000       9.191690  2
|740>    2      0.172000       0.008301  2
|741>   p 2
|742>    1      0.860000      17.997720  2
|743>    2      0.172000      -0.032600  2
|744>   d 2
|745>    1      1.600000      -9.504310  2
|746>    2      0.320000      -0.151370  2
|747>   f 1
|748>    1      1.000000000    0.000000000 2
|749> end
|750> Ti>    4.00000000000   -3.25402271772   -0.00000100232   -7.78540932970
|751> NewECP
|752> N_core 0
|753>   lmax f
|754>   s 2
|755>    1      0.860000       9.191690  2
|756>    2      0.172000       0.008301  2
|757>   p 2
|758>    1      0.860000      17.997720  2
|759>    2      0.172000      -0.032600  2
|760>   d 2
|761>    1      1.600000      -9.504310  2
|762>    2      0.320000      -0.151370  2
|763>   f 1
|764>    1      1.000000000    0.000000000 2
|765> end
|766> Ti>    4.00000000000   -3.25402271772    2.96109253364   -7.78540932970
|767> NewECP
|768> N_core 0
|769>   lmax f
|770>   s 2
|771>    1      0.860000       9.191690  2
|772>    2      0.172000       0.008301  2
|773>   p 2
|774>    1      0.860000      17.997720  2
|775>    2      0.172000      -0.032600  2
|776>   d 2
|777>    1      1.600000      -9.504310  2
|778>    2      0.320000      -0.151370  2
|779>   f 1
|780>    1      1.000000000    0.000000000 2
|781> end
|782> Ti>    4.00000000000    3.25401657974    2.96109253364   -7.78540932970
|783> NewECP
|784> N_core 0
|785>   lmax f
|786>   s 2
|787>    1      0.860000       9.191690  2
|788>    2      0.172000       0.008301  2
|789>   p 2
|790>    1      0.860000      17.997720  2
|791>    2      0.172000      -0.032600  2
|792>   d 2
|793>    1      1.600000      -9.504310  2
|794>    2      0.320000      -0.151370  2
|795>   f 1
|796>    1      1.000000000    0.000000000 2
|797> end
|798> Ti>    4.00000000000    3.25401657974   -2.96109453828   -7.78540932970
|799> NewECP
|800> N_core 0
|801>   lmax f
|802>   s 2
|803>    1      0.860000       9.191690  2
|804>    2      0.172000       0.008301  2
|805>   p 2
|806>    1      0.860000      17.997720  2
|807>    2      0.172000      -0.032600  2
|808>   d 2
|809>    1      1.600000      -9.504310  2
|810>    2      0.320000      -0.151370  2
|811>   f 1
|812>    1      1.000000000    0.000000000 2
|813> end
|814> Ti>    4.00000000000   -3.25402271772   -2.96109453828   -7.78540932970
|815> NewECP
|816> N_core 0
|817>   lmax f
|818>   s 2
|819>    1      0.860000       9.191690  2
|820>    2      0.172000       0.008301  2
|821>   p 2
|822>    1      0.860000      17.997720  2
|823>    2      0.172000      -0.032600  2
|824>   d 2
|825>    1      1.600000      -9.504310  2
|826>    2      0.320000      -0.151370  2
|827>   f 1
|828>    1      1.000000000    0.000000000 2
|829> end
|830> Ti>    4.00000000000   -0.00000306899    4.44163930162   -7.78540932970
|831> NewECP
|832> N_core 0
|833>   lmax f
|834>   s 2
|835>    1      0.860000       9.191690  2
|836>    2      0.172000       0.008301  2
|837>   p 2
|838>    1      0.860000      17.997720  2
|839>    2      0.172000      -0.032600  2
|840>   d 2
|841>    1      1.600000      -9.504310  2
|842>    2      0.320000      -0.151370  2
|843>   f 1
|844>    1      1.000000000    0.000000000 2
|845> end
|846> Ti>    4.00000000000   -0.00000306899   -4.44164130627   -7.78540932970
|847> NewECP
|848> N_core 0
|849>   lmax f
|850>   s 2
|851>    1      0.860000       9.191690  2
|852>    2      0.172000       0.008301  2
|853>   p 2
|854>    1      0.860000      17.997720  2
|855>    2      0.172000      -0.032600  2
|856>   d 2
|857>    1      1.600000      -9.504310  2
|858>    2      0.320000      -0.151370  2
|859>   f 1
|860>    1      1.000000000    0.000000000 2
|861> end
|862> Ti>    4.00000000000   -3.25408714585    7.40273240730   -4.59991327640
|863> NewECP
|864> N_core 0
|865>   lmax f
|866>   s 2
|867>    1      0.860000       9.191690  2
|868>    2      0.172000       0.008301  2
|869>   p 2
|870>    1      0.860000      17.997720  2
|871>    2      0.172000      -0.032600  2
|872>   d 2
|873>    1      1.600000      -9.504310  2
|874>    2      0.320000      -0.151370  2
|875>   f 1
|876>    1      1.000000000    0.000000000 2
|877> end
|878> Ti>    4.00000000000    3.25395215162    7.40273240730   -4.59991327640
|879> NewECP
|880> N_core 0
|881>   lmax f
|882>   s 2
|883>    1      0.860000       9.191690  2
|884>    2      0.172000       0.008301  2
|885>   p 2
|886>    1      0.860000      17.997720  2
|887>    2      0.172000      -0.032600  2
|888>   d 2
|889>    1      1.600000      -9.504310  2
|890>    2      0.320000      -0.151370  2
|891>   f 1
|892>    1      1.000000000    0.000000000 2
|893> end
|894> Ti>    4.00000000000    3.25395195581   -7.40273429615   -4.59991284715
|895> NewECP
|896> N_core 0
|897>   lmax f
|898>   s 2
|899>    1      0.860000       9.191690  2
|900>    2      0.172000       0.008301  2
|901>   p 2
|902>    1      0.860000      17.997720  2
|903>    2      0.172000      -0.032600  2
|904>   d 2
|905>    1      1.600000      -9.504310  2
|906>    2      0.320000      -0.151370  2
|907>   f 1
|908>    1      1.000000000    0.000000000 2
|909> end
|910> Ti>    4.00000000000   -3.25408734165   -7.40273429615   -4.59991284715
|911> NewECP
|912> N_core 0
|913>   lmax f
|914>   s 2
|915>    1      0.860000       9.191690  2
|916>    2      0.172000       0.008301  2
|917>   p 2
|918>    1      0.860000      17.997720  2
|919>    2      0.172000      -0.032600  2
|920>   d 2
|921>    1      1.600000      -9.504310  2
|922>    2      0.320000      -0.151370  2
|923>   f 1
|924>    1      1.000000000    0.000000000 2
|925> end
|926> Ti>    4.00000000000   -3.25401668289    8.88328009748   -1.42716235830
|927> NewECP
|928> N_core 0
|929>   lmax f
|930>   s 2
|931>    1      0.860000       9.191690  2
|932>    2      0.172000       0.008301  2
|933>   p 2
|934>    1      0.860000      17.997720  2
|935>    2      0.172000      -0.032600  2
|936>   d 2
|937>    1      1.600000      -9.504310  2
|938>    2      0.320000      -0.151370  2
|939>   f 1
|940>    1      1.000000000    0.000000000 2
|941> end
|942> Ti>    4.00000000000    3.25402261457    8.88328009748   -1.42716235830
|943> NewECP
|944> N_core 0
|945>   lmax f
|946>   s 2
|947>    1      0.860000       9.191690  2
|948>    2      0.172000       0.008301  2
|949>   p 2
|950>    1      0.860000      17.997720  2
|951>    2      0.172000      -0.032600  2
|952>   d 2
|953>    1      1.600000      -9.504310  2
|954>    2      0.320000      -0.151370  2
|955>   f 1
|956>    1      1.000000000    0.000000000 2
|957> end
|958> Ti>    4.00000000000    3.25402261457   -8.88328111830   -1.42716235830
|959> NewECP
|960> N_core 0
|961>   lmax f
|962>   s 2
|963>    1      0.860000       9.191690  2
|964>    2      0.172000       0.008301  2
|965>   p 2
|966>    1      0.860000      17.997720  2
|967>    2      0.172000      -0.032600  2
|968>   d 2
|969>    1      1.600000      -9.504310  2
|970>    2      0.320000      -0.151370  2
|971>   f 1
|972>    1      1.000000000    0.000000000 2
|973> end
|974> Ti>    4.00000000000   -3.25401668289   -8.88328111830   -1.42716235830
|975> NewECP
|976> N_core 0
|977>   lmax f
|978>   s 2
|979>    1      0.860000       9.191690  2
|980>    2      0.172000       0.008301  2
|981>   p 2
|982>    1      0.860000      17.997720  2
|983>    2      0.172000      -0.032600  2
|984>   d 2
|985>    1      1.600000      -9.504310  2
|986>    2      0.320000      -0.151370  2
|987>   f 1
|988>    1      1.000000000    0.000000000 2
|989> end
|990> Ti>    4.00000000000   -0.00005206359    8.88328008829   -4.41288206312
|991> NewECP
|992> N_core 0
|993>   lmax f
|994>   s 2
|995>    1      0.860000       9.191690  2
|996>    2      0.172000       0.008301  2
|997>   p 2
|998>    1      0.860000      17.997720  2
|999>    2      0.172000      -0.032600  2
|1000>   d 2
|1001>    1      1.600000      -9.504310  2
|1002>    2      0.320000      -0.151370  2
|1003>   f 1
|1004>    1      1.000000000    0.000000000 2
|1005> end
|1006> Ti>    4.00000000000   -0.00005206359   -8.88328112748   -4.41288206312
|1007> NewECP
|1008> N_core 0
|1009>   lmax f
|1010>   s 2
|1011>    1      0.860000       9.191690  2
|1012>    2      0.172000       0.008301  2
|1013>   p 2
|1014>    1      0.860000      17.997720  2
|1015>    2      0.172000      -0.032600  2
|1016>   d 2
|1017>    1      1.600000      -9.504310  2
|1018>    2      0.320000      -0.151370  2
|1019>   f 1
|1020>    1      1.000000000    0.000000000 2
|1021> end
|1022> Ti>    4.00000000000   -3.25402271772    5.92218606960   -7.78540932970
|1023> NewECP
|1024> N_core 0
|1025>   lmax f
|1026>   s 2
|1027>    1      0.860000       9.191690  2
|1028>    2      0.172000       0.008301  2
|1029>   p 2
|1030>    1      0.860000      17.997720  2
|1031>    2      0.172000      -0.032600  2
|1032>   d 2
|1033>    1      1.600000      -9.504310  2
|1034>    2      0.320000      -0.151370  2
|1035>   f 1
|1036>    1      1.000000000    0.000000000 2
|1037> end
|1038> Ti>    4.00000000000    3.25401657974    5.92218606960   -7.78540932970
|1039> NewECP
|1040> N_core 0
|1041>   lmax f
|1042>   s 2
|1043>    1      0.860000       9.191690  2
|1044>    2      0.172000       0.008301  2
|1045>   p 2
|1046>    1      0.860000      17.997720  2
|1047>    2      0.172000      -0.032600  2
|1048>   d 2
|1049>    1      1.600000      -9.504310  2
|1050>    2      0.320000      -0.151370  2
|1051>   f 1
|1052>    1      1.000000000    0.000000000 2
|1053> end
|1054> Ti>    4.00000000000    3.25401657974   -5.92218807425   -7.78540932970
|1055> NewECP
|1056> N_core 0
|1057>   lmax f
|1058>   s 2
|1059>    1      0.860000       9.191690  2
|1060>    2      0.172000       0.008301  2
|1061>   p 2
|1062>    1      0.860000      17.997720  2
|1063>    2      0.172000      -0.032600  2
|1064>   d 2
|1065>    1      1.600000      -9.504310  2
|1066>    2      0.320000      -0.151370  2
|1067>   f 1
|1068>    1      1.000000000    0.000000000 2
|1069> end
|1070> Ti>    4.00000000000   -3.25402271772   -5.92218807425   -7.78540932970
|1071> NewECP
|1072> N_core 0
|1073>   lmax f
|1074>   s 2
|1075>    1      0.860000       9.191690  2
|1076>    2      0.172000       0.008301  2
|1077>   p 2
|1078>    1      0.860000      17.997720  2
|1079>    2      0.172000      -0.032600  2
|1080>   d 2
|1081>    1      1.600000      -9.504310  2
|1082>    2      0.320000      -0.151370  2
|1083>   f 1
|1084>    1      1.000000000    0.000000000 2
|1085> end
|1086> Ti>    4.00000000000   -0.00000306899    7.40273283758   -7.78540932970
|1087> NewECP
|1088> N_core 0
|1089>   lmax f
|1090>   s 2
|1091>    1      0.860000       9.191690  2
|1092>    2      0.172000       0.008301  2
|1093>   p 2
|1094>    1      0.860000      17.997720  2
|1095>    2      0.172000      -0.032600  2
|1096>   d 2
|1097>    1      1.600000      -9.504310  2
|1098>    2      0.320000      -0.151370  2
|1099>   f 1
|1100>    1      1.000000000    0.000000000 2
|1101> end
|1102> Ti>    4.00000000000   -0.00000306899   -7.40273484223   -7.78540932970
|1103> NewECP
|1104> N_core 0
|1105>   lmax f
|1106>   s 2
|1107>    1      0.860000       9.191690  2
|1108>    2      0.172000       0.008301  2
|1109>   p 2
|1110>    1      0.860000      17.997720  2
|1111>    2      0.172000      -0.032600  2
|1112>   d 2
|1113>    1      1.600000      -9.504310  2
|1114>    2      0.320000      -0.151370  2
|1115>   f 1
|1116>    1      1.000000000    0.000000000 2
|1117> end
|1118>   end
|1119> endd                         ****END OF INPUT****
================================================================================

                       ****************************
                       * Single Point Calculation *
                       ****************************

---------------------------------
CARTESIAN COORDINATES (ANGSTROEM)
---------------------------------
  O      0.000000    0.000000    0.000000
  Ti     0.000005    1.480551   -1.068926
  Ti     0.000006   -1.480553   -1.068921
  O      0.000004   -0.000001   -2.548403
  O     -2.035259    1.480545   -1.111494
  O      2.035265    1.480545   -1.111492
  O      2.035265   -1.480547   -1.111493
  O     -2.035259   -1.480547   -1.111495
  O     -0.000000    2.961092   -0.000003
  O     -0.000000   -2.961096   -0.000003
  O      0.000004    2.961092   -2.548404
  O      0.000004   -2.961095   -2.548404
  Ti>    3.254023   -0.000001   -1.427162
  Ti>   -3.254016   -0.000001   -1.427162
  Ti>   -0.000052   -0.000001   -4.412884
  Ti>    0.000006    4.441634   -1.068921
  Ti>    0.000005   -4.441636   -1.068926
  Ti>   -3.254017    2.961093   -1.427162
  Ti>    3.254023    2.961093   -1.427162
  Ti>    3.254023   -2.961094   -1.427162
  Ti>   -3.254017   -2.961094   -1.427162
  Ti>   -0.000052    2.961093   -4.412882
  Ti>   -0.000052   -2.961094   -4.412882
  Ti>    3.253952    1.480545   -4.599913
  Ti>    3.253952   -1.480547   -4.599913
  Ti>   -3.254087    1.480545   -4.599913
  Ti>   -3.254087   -1.480547   -4.599913
  Ti>   -6.508034    1.480551   -1.068926
  Ti>    6.508045    1.480551   -1.068926
  Ti>    6.508045   -1.480553   -1.068921
  Ti>   -6.508034   -1.480553   -1.068921
  Ti>   -3.254016    5.922186   -1.427162
  Ti>    3.254023    5.922186   -1.427162
  Ti>    3.254023   -5.922188   -1.427162
  Ti>   -3.254016   -5.922188   -1.427162
  Ti>    3.253952    4.441640   -4.599913
  Ti>    3.253952   -4.441642   -4.599913
  Ti>   -3.254087    4.441640   -4.599913
  Ti>   -3.254087   -4.441642   -4.599913
  Ti>   -0.000052    5.922186   -4.412884
  Ti>   -0.000052   -5.922188   -4.412884
  Ti>    0.000005    7.402739   -1.068926
  Ti>    0.000006   -7.402740   -1.068921
  Ti>    6.507987   -0.000001   -4.412884
  Ti>   -6.508092   -0.000001   -4.412884
  Ti>   -0.000003    1.480546   -7.785409
  Ti>   -0.000003   -1.480548   -7.785409
  Ti>   -6.508034    4.441634   -1.068921
  Ti>    6.508045    4.441634   -1.068921
  Ti>    6.508045   -4.441636   -1.068926
  Ti>   -6.508034   -4.441636   -1.068926
  Ti>    6.507987    2.961093   -4.412882
  Ti>    6.507987   -2.961094   -4.412882
  Ti>   -6.508091    2.961093   -4.412882
  Ti>   -6.508091   -2.961094   -4.412882
  Ti>    3.254017   -0.000001   -7.785409
  Ti>   -3.254023   -0.000001   -7.785409
  Ti>   -3.254023    2.961093   -7.785409
  Ti>    3.254017    2.961093   -7.785409
  Ti>    3.254017   -2.961095   -7.785409
  Ti>   -3.254023   -2.961095   -7.785409
  Ti>   -0.000003    4.441639   -7.785409
  Ti>   -0.000003   -4.441641   -7.785409
  Ti>   -3.254087    7.402732   -4.599913
  Ti>    3.253952    7.402732   -4.599913
  Ti>    3.253952   -7.402734   -4.599913
  Ti>   -3.254087   -7.402734   -4.599913
  Ti>   -3.254017    8.883280   -1.427162
  Ti>    3.254023    8.883280   -1.427162
  Ti>    3.254023   -8.883281   -1.427162
  Ti>   -3.254017   -8.883281   -1.427162
  Ti>   -0.000052    8.883280   -4.412882
  Ti>   -0.000052   -8.883281   -4.412882
  Ti>   -3.254023    5.922186   -7.785409
  Ti>    3.254017    5.922186   -7.785409
  Ti>    3.254017   -5.922188   -7.785409
  Ti>   -3.254023   -5.922188   -7.785409
  Ti>   -0.000003    7.402733   -7.785409
  Ti>   -0.000003   -7.402735   -7.785409

----------------------------
CARTESIAN COORDINATES (A.U.)
----------------------------
  NO LB      ZA    FRAG     MASS         X           Y           Z
   0 O     8.0000    0    15.999    0.000000    0.000000    0.000000
   1 Ti   22.0000    0    47.900    0.000010    2.797837   -2.019978
   2 Ti   22.0000    0    47.900    0.000010   -2.797840   -2.019969
   3 O     8.0000    0    15.999    0.000008   -0.000002   -4.815784
   4 O     8.0000    0    15.999   -3.846082    2.797825   -2.100419
   5 O     8.0000    0    15.999    3.846094    2.797825   -2.100415
   6 O     8.0000    0    15.999    3.846093   -2.797828   -2.100417
   7 O     8.0000    0    15.999   -3.846082   -2.797829   -2.100421
   8 O     8.0000    0    15.999   -0.000001    5.595652   -0.000005
   9 O     8.0000    0    15.999   -0.000001   -5.595660   -0.000005
  10 O     8.0000    0    15.999    0.000009    5.595653   -4.815786
  11 O     8.0000    0    15.999    0.000009   -5.595659   -4.815786
  12 Ti>   4.0000    0     0.000    6.149213   -0.000002   -2.696945
  13 Ti>   4.0000    0     0.000   -6.149199   -0.000002   -2.696945
  14 Ti>   4.0000    0     0.000   -0.000099   -0.000001   -8.339142
  15 Ti>   4.0000    0     0.000    0.000010    8.393472   -2.019969
  16 Ti>   4.0000    0     0.000    0.000010   -8.393475   -2.019978
  17 Ti>   4.0000    0     0.000   -6.149200    5.595655   -2.696946
  18 Ti>   4.0000    0     0.000    6.149212    5.595655   -2.696946
  19 Ti>   4.0000    0     0.000    6.149212   -5.595657   -2.696946
  20 Ti>   4.0000    0     0.000   -6.149200   -5.595657   -2.696946
  21 Ti>   4.0000    0     0.000   -0.000098    5.595655   -8.339139
  22 Ti>   4.0000    0     0.000   -0.000098   -5.595657   -8.339139
  23 Ti>   4.0000    0     0.000    6.149078    2.797825   -8.692576
  24 Ti>   4.0000    0     0.000    6.149078   -2.797829   -8.692576
  25 Ti>   4.0000    0     0.000   -6.149334    2.797825   -8.692576
  26 Ti>   4.0000    0     0.000   -6.149334   -2.797829   -8.692576
  27 Ti>   4.0000    0     0.000  -12.298402    2.797837   -2.019978
  28 Ti>   4.0000    0     0.000   12.298422    2.797837   -2.019978
  29 Ti>   4.0000    0     0.000   12.298422   -2.797840   -2.019969
  30 Ti>   4.0000    0     0.000  -12.298402   -2.797840   -2.019969
  31 Ti>   4.0000    0     0.000   -6.149199   11.191310   -2.696945
  32 Ti>   4.0000    0     0.000    6.149213   11.191310   -2.696945
  33 Ti>   4.0000    0     0.000    6.149213  -11.191314   -2.696945
  34 Ti>   4.0000    0     0.000   -6.149199  -11.191314   -2.696945
  35 Ti>   4.0000    0     0.000    6.149078    8.393483   -8.692576
  36 Ti>   4.0000    0     0.000    6.149078   -8.393486   -8.692576
  37 Ti>   4.0000    0     0.000   -6.149334    8.393483   -8.692576
  38 Ti>   4.0000    0     0.000   -6.149334   -8.393486   -8.692576
  39 Ti>   4.0000    0     0.000   -0.000099   11.191310   -8.339142
  40 Ti>   4.0000    0     0.000   -0.000099  -11.191313   -8.339142
  41 Ti>   4.0000    0     0.000    0.000010   13.989149   -2.019978
  42 Ti>   4.0000    0     0.000    0.000010  -13.989152   -2.019969
  43 Ti>   4.0000    0     0.000   12.298313   -0.000001   -8.339142
  44 Ti>   4.0000    0     0.000  -12.298511   -0.000001   -8.339142
  45 Ti>   4.0000    0     0.000   -0.000006    2.797826  -14.712291
  46 Ti>   4.0000    0     0.000   -0.000006   -2.797830  -14.712291
  47 Ti>   4.0000    0     0.000  -12.298402    8.393472   -2.019969
  48 Ti>   4.0000    0     0.000   12.298422    8.393472   -2.019969
  49 Ti>   4.0000    0     0.000   12.298422   -8.393475   -2.019978
  50 Ti>   4.0000    0     0.000  -12.298402   -8.393475   -2.019978
  51 Ti>   4.0000    0     0.000   12.298314    5.595655   -8.339139
  52 Ti>   4.0000    0     0.000   12.298314   -5.595657   -8.339139
  53 Ti>   4.0000    0     0.000  -12.298510    5.595655   -8.339139
  54 Ti>   4.0000    0     0.000  -12.298510   -5.595657   -8.339139
  55 Ti>   4.0000    0     0.000    6.149200   -0.000002  -14.712291
  56 Ti>   4.0000    0     0.000   -6.149212   -0.000002  -14.712291
  57 Ti>   4.0000    0     0.000   -6.149212    5.595654  -14.712291
  58 Ti>   4.0000    0     0.000    6.149200    5.595654  -14.712291
  59 Ti>   4.0000    0     0.000    6.149200   -5.595658  -14.712291
  60 Ti>   4.0000    0     0.000   -6.149212   -5.595658  -14.712291
  61 Ti>   4.0000    0     0.000   -0.000006    8.393482  -14.712291
  62 Ti>   4.0000    0     0.000   -0.000006   -8.393486  -14.712291
  63 Ti>   4.0000    0     0.000   -6.149334   13.989137   -8.692576
  64 Ti>   4.0000    0     0.000    6.149078   13.989137   -8.692576
  65 Ti>   4.0000    0     0.000    6.149078  -13.989140   -8.692576
  66 Ti>   4.0000    0     0.000   -6.149334  -13.989140   -8.692576
  67 Ti>   4.0000    0     0.000   -6.149200   16.786967   -2.696946
  68 Ti>   4.0000    0     0.000    6.149212   16.786967   -2.696946
  69 Ti>   4.0000    0     0.000    6.149212  -16.786968   -2.696946
  70 Ti>   4.0000    0     0.000   -6.149200  -16.786968   -2.696946
  71 Ti>   4.0000    0     0.000   -0.000098   16.786967   -8.339139
  72 Ti>   4.0000    0     0.000   -0.000098  -16.786969   -8.339139
  73 Ti>   4.0000    0     0.000   -6.149212   11.191310  -14.712291
  74 Ti>   4.0000    0     0.000    6.149200   11.191310  -14.712291
  75 Ti>   4.0000    0     0.000    6.149200  -11.191314  -14.712291
  76 Ti>   4.0000    0     0.000   -6.149212  -11.191314  -14.712291
  77 Ti>   4.0000    0     0.000   -0.000006   13.989138  -14.712291
  78 Ti>   4.0000    0     0.000   -0.000006  -13.989141  -14.712291
> coreless ECP center with (optional) point charge

--------------------------------
INTERNAL COORDINATES (ANGSTROEM)
--------------------------------
 O      0   0   0     0.000000000000     0.00000000     0.00000000
 Ti     1   0   0     1.826098483252     0.00000000     0.00000000
 Ti     1   2   0     1.826097063306   108.34321415     0.00000000
 O      2   1   3     2.093057118869    80.80764629     0.00000000
 O      2   1   3     2.035709617889    90.70101716    89.02863937
 O      2   1   3     2.035705038603    90.70132129   270.97178739
 O      3   1   2     2.035704375863    90.70142476    89.02807847
 O      3   1   2     2.035709824520    90.70111581   270.97149260
 O      2   1   3     1.826087614204   108.34292419   179.99999251
 O      3   1   2     1.826086776018   108.34323519   180.00001748
 O      2   1   3     2.093049508223   170.84902752     0.00000000
 O      3   1   2     2.093053849171   170.84881627     0.00000000
 Ti>    7   3   1     1.943459621643   129.07739454   313.09097521
 Ti>    8   3   1     1.943458546842   129.07736791    46.90890739
 Ti>    4   2   1     1.864480942980   134.97916629   179.99739930
 Ti>    9   2   1     1.826086776009   108.34294524   179.99998252
 Ti>   10   3   1     1.826087614204   108.34294524   180.00000759
 Ti>    5   2   1     1.943460434294   129.07697438   155.26413262
 Ti>    6   2   1     1.943460549729   129.07695411   204.73573064
 Ti>    7   3   1     1.943460200909   129.07702078   155.26424088
 Ti>    8   3   1     1.943459506351   129.07704137   204.73588289
 Ti>   11   2   9     1.864477681998   134.97947132   180.00261235
 Ti>   12   3  10     1.864477681998   134.97947069   179.99738765
 Ti>   13   7   3     3.501195268645   117.99029831   293.82636289
 Ti>   24  13   7     2.961092559600    64.98414806   314.75015014
 Ti>   14   8   3     3.501195268645   117.99190683    66.17563929
 Ti>   26  14   8     2.961092559600    64.98414806    45.25001344
 Ti>   18   5   2     3.592904770073   103.75912215   182.19317944
 Ti>   19   6   2     3.592909124821   103.75914076   177.80693444
 Ti>   29  19   6     2.961104620864   114.33514894    13.70194122
 Ti>   28  18   5     2.961104620864   114.33517454   346.29812182
 Ti>   18   5   2     2.961092926020   139.62402324   342.73205762
 Ti>   19   6   2     2.961092926020   139.62403651    17.26815680
 Ti>   20   7   3     2.961094145900   139.62401672   342.73213459
 Ti>   21   8   3     2.961094145900   139.62400890    17.26767399
 Ti>   24  13   7     2.961094512320   115.01583533   134.75014177
 Ti>   25  24  13     2.961094512330   179.99998173     0.00000000
 Ti>   26  14   8     2.961094512320   115.01583533   225.25000508
 Ti>   27  26  14     2.961094512330   179.99998173     0.00000000
 Ti>   22  11   2     2.961093345411    90.00006819   179.99829400
 Ti>   23  12   3     2.961093726511    90.00000523   180.00170016
 Ti>   16   9   2     2.961104620864   144.17164420   179.99999001
 Ti>   17  10   3     2.961104620864   144.17130104   179.99998997
 Ti>   24  13   7     3.579907814782    77.15890077   245.95599690
 Ti>   27  26  14     3.579880005705    65.57043628    86.71173728
 Ti>   15   4   2     3.683197691633   156.29842650     0.00000000
 Ti>   46  15   4     2.961093535960    66.29841404   179.99359428
 Ti>   28  18   5     2.961082451064    65.66483947   166.29792358
 Ti>   29  19   6     2.961082451064    65.66487669   193.70213806
 Ti>   30  29  19     2.961082451074   179.99981884    81.86878434
 Ti>   31  28  18     2.961082451074   179.99981884   274.43353391
 Ti>   44  24  13     2.961093726511    65.57064724   248.11034328
 Ti>   44  24  13     2.961093345421   114.42936239    68.11026311
 Ti>   45  27  26     2.961093726511   114.42956738     0.00000000
 Ti>   45  27  26     2.961093345421    65.57043142   180.00003155
 Ti>   24  13   7     3.512748577370   130.05621961   314.74725307
 Ti>   26  14   8     3.512748577370   130.05621961    45.24711637
 Ti>   57  26  14     2.961093535960    65.07206331   180.00289082
 Ti>   56  24  13     2.961093535960    65.07206331   180.00289082
 Ti>   56  24  13     2.961093535960   114.92793669     0.00000000
 Ti>   57  26  14     2.961093535960   114.92793669     0.00000000
 Ti>   46  15   4     2.961093535960   113.70158596     0.00000000
 Ti>   47  46  15     2.961093535970   180.00000000     0.00000000
 Ti>   38  26  14     2.961092559600   179.99998163     0.00000000
 Ti>   36  24  13     2.961092559600   179.99998163     0.00000000
 Ti>   37  25  24     2.961092559600   179.99998173     0.00000000
 Ti>   39  27  26     2.961092559600   179.99998173     0.00000000
 Ti>   32  18   5     2.961094145910   179.99997423   164.60199535
 Ti>   33  19   6     2.961094145910   179.99997423   315.55990180
 Ti>   34  20   7     2.961092926020   179.99997423    44.44003271
 Ti>   35  21   8     2.961092926020   179.99997423   195.39805726
 Ti>   40  22  11     2.961093726511   179.99992634     4.22285443
 Ti>   41  23  12     2.961093345411   179.99992636   355.77714557
 Ti>   58  57  26     2.961093535960   180.00000000     0.00000000
 Ti>   59  56  24     2.961093535960   180.00000000     0.00000000
 Ti>   60  56  24     2.961093535970   179.99999829     0.00000000
 Ti>   61  57  26     2.961093535970   179.99999829     0.00000000
 Ti>   62  46  15     2.961093535960   179.99999879     0.00000000
 Ti>   63  47  46     2.961093535960   179.99999829     0.00000000

---------------------------
INTERNAL COORDINATES (A.U.)
---------------------------
 O      0   0   0     0.000000000000     0.00000000     0.00000000
 Ti     1   0   0     3.450826026915     0.00000000     0.00000000
 Ti     1   2   0     3.450823343607   108.34321415     0.00000000
 O      2   1   3     3.955304737318    80.80764629     0.00000000
 O      2   1   3     3.846933666000    90.70101716    89.02863937
 O      2   1   3     3.846925012404    90.70132129   270.97178739
 O      3   1   2     3.846923760006    90.70142476    89.02807847
 O      3   1   2     3.846934056476    90.70111581   270.97149260
 O      2   1   3     3.450805487392   108.34292419   179.99999251
 O      3   1   2     3.450803903448   108.34323519   180.00001748
 O      2   1   3     3.955290355280   170.84902752     0.00000000
 O      3   1   2     3.955298558482   170.84881627     0.00000000
 Ti>    7   3   1     3.672606437239   129.07739454   313.09097521
 Ti>    8   3   1     3.672604406160   129.07736791    46.90890739
 Ti>    4   2   1     3.523358364147   134.97916629   179.99739930
 Ti>    9   2   1     3.450803903433   108.34294524   179.99998252
 Ti>   10   3   1     3.450805487392   108.34294524   180.00000759
 Ti>    5   2   1     3.672607972928   129.07697438   155.26413262
 Ti>    6   2   1     3.672608191067   129.07695411   204.73573064
 Ti>    7   3   1     3.672607531894   129.07702078   155.26424088
 Ti>    8   3   1     3.672606219368   129.07704137   204.73588289
 Ti>   11   2   9     3.523352201785   134.97947132   180.00261235
 Ti>   12   3  10     3.523352201785   134.97947069   179.99738765
 Ti>   13   7   3     6.616300199121   117.99029831   293.82636289
 Ti>   24  13   7     5.595653994836    64.98414806   314.75015014
 Ti>   14   8   3     6.616300199121   117.99190683    66.17563929
 Ti>   26  14   8     5.595653994836    64.98414806    45.25001344
 Ti>   18   5   2     6.789606040697   103.75912215   182.19317944
 Ti>   19   6   2     6.789614269979   103.75914076   177.80693444
 Ti>   29  19   6     5.595676787321   114.33514894    13.70194122
 Ti>   28  18   5     5.595676787321   114.33517454   346.29812182
 Ti>   18   5   2     5.595654687269   139.62402324   342.73205762
 Ti>   19   6   2     5.595654687269   139.62403651    17.26815680
 Ti>   20   7   3     5.595656992509   139.62401672   342.73213459
 Ti>   21   8   3     5.595656992509   139.62400890    17.26767399
 Ti>   24  13   7     5.595657684942   115.01583533   134.75014177
 Ti>   25  24  13     5.595657684961   179.99998173     0.00000000
 Ti>   26  14   8     5.595657684942   115.01583533   225.25000508
 Ti>   27  26  14     5.595657684961   179.99998173     0.00000000
 Ti>   22  11   2     5.595655479803    90.00006819   179.99829400
 Ti>   23  12   3     5.595656199977    90.00000523   180.00170016
 Ti>   16   9   2     5.595676787321   144.17164420   179.99999001
 Ti>   17  10   3     5.595676787321   144.17130104   179.99998997
 Ti>   24  13   7     6.765045354623    77.15890077   245.95599690
 Ti>   27  26  14     6.764992803083    65.57043628    86.71173728
 Ti>   15   4   2     6.960234934278   156.29842650     0.00000000
 Ti>   46  15   4     5.595655839889    66.29841404   179.99359428
 Ti>   28  18   5     5.595634892471    65.66483947   166.29792358
 Ti>   29  19   6     5.595634892471    65.66487669   193.70213806
 Ti>   30  29  19     5.595634892490   179.99981884    81.86878434
 Ti>   31  28  18     5.595634892490   179.99981884   274.43353391
 Ti>   44  24  13     5.595656199977    65.57064724   248.11034328
 Ti>   44  24  13     5.595655479822   114.42936239    68.11026311
 Ti>   45  27  26     5.595656199977   114.42956738     0.00000000
 Ti>   45  27  26     5.595655479822    65.57043142   180.00003155
 Ti>   24  13   7     6.638132788552   130.05621961   314.74725307
 Ti>   26  14   8     6.638132788552   130.05621961    45.24711637
 Ti>   57  26  14     5.595655839889    65.07206331   180.00289082
 Ti>   56  24  13     5.595655839889    65.07206331   180.00289082
 Ti>   56  24  13     5.595655839889   114.92793669     0.00000000
 Ti>   57  26  14     5.595655839889   114.92793669     0.00000000
 Ti>   46  15   4     5.595655839889   113.70158596     0.00000000
 Ti>   47  46  15     5.595655839908   180.00000000     0.00000000
 Ti>   38  26  14     5.595653994836   179.99998163     0.00000000
 Ti>   36  24  13     5.595653994836   179.99998163     0.00000000
 Ti>   37  25  24     5.595653994836   179.99998173     0.00000000
 Ti>   39  27  26     5.595653994836   179.99998173     0.00000000
 Ti>   32  18   5     5.595656992527   179.99997423   164.60199535
 Ti>   33  19   6     5.595656992527   179.99997423   315.55990180
 Ti>   34  20   7     5.595654687269   179.99997423    44.44003271
 Ti>   35  21   8     5.595654687269   179.99997423   195.39805726
 Ti>   40  22  11     5.595656199977   179.99992634     4.22285443
 Ti>   41  23  12     5.595655479803   179.99992636   355.77714557
 Ti>   58  57  26     5.595655839889   180.00000000     0.00000000
 Ti>   59  56  24     5.595655839889   180.00000000     0.00000000
 Ti>   60  56  24     5.595655839908   179.99999829     0.00000000
 Ti>   61  57  26     5.595655839908   179.99999829     0.00000000
 Ti>   62  46  15     5.595655839889   179.99999879     0.00000000
 Ti>   63  47  46     5.595655839889   179.99999829     0.00000000

---------------------
BASIS SET INFORMATION
---------------------
There are 3 groups of distinct atoms

 Group   1 Type O   : 15s8p3d2f1g contracted to 7s4p3d2f1g pattern {8211111/5111/111/11/1}
 Group   2 Type Ti  : 24s18p9d3f2g contracted to 11s6p5d3f2g pattern {114111111111/951111/51111/111/11}
 Group   3 Type Q,> :  contracted to  pattern {}

Atom   0O    basis set group =>   1
Atom   1Ti   basis set group =>   2
Atom   2Ti   basis set group =>   2
Atom   3O    basis set group =>   1
Atom   4O    basis set group =>   1
Atom   5O    basis set group =>   1
Atom   6O    basis set group =>   1
Atom   7O    basis set group =>   1
Atom   8O    basis set group =>   1
Atom   9O    basis set group =>   1
Atom  10O    basis set group =>   1
Atom  11O    basis set group =>   1
Atom  12Ti>  basis set group =>   3
Atom  13Ti>  basis set group =>   3
Atom  14Ti>  basis set group =>   3
Atom  15Ti>  basis set group =>   3
Atom  16Ti>  basis set group =>   3
Atom  17Ti>  basis set group =>   3
Atom  18Ti>  basis set group =>   3
Atom  19Ti>  basis set group =>   3
Atom  20Ti>  basis set group =>   3
Atom  21Ti>  basis set group =>   3
Atom  22Ti>  basis set group =>   3
Atom  23Ti>  basis set group =>   3
Atom  24Ti>  basis set group =>   3
Atom  25Ti>  basis set group =>   3
Atom  26Ti>  basis set group =>   3
Atom  27Ti>  basis set group =>   3
Atom  28Ti>  basis set group =>   3
Atom  29Ti>  basis set group =>   3
Atom  30Ti>  basis set group =>   3
Atom  31Ti>  basis set group =>   3
Atom  32Ti>  basis set group =>   3
Atom  33Ti>  basis set group =>   3
Atom  34Ti>  basis set group =>   3
Atom  35Ti>  basis set group =>   3
Atom  36Ti>  basis set group =>   3
Atom  37Ti>  basis set group =>   3
Atom  38Ti>  basis set group =>   3
Atom  39Ti>  basis set group =>   3
Atom  40Ti>  basis set group =>   3
Atom  41Ti>  basis set group =>   3
Atom  42Ti>  basis set group =>   3
Atom  43Ti>  basis set group =>   3
Atom  44Ti>  basis set group =>   3
Atom  45Ti>  basis set group =>   3
Atom  46Ti>  basis set group =>   3
Atom  47Ti>  basis set group =>   3
Atom  48Ti>  basis set group =>   3
Atom  49Ti>  basis set group =>   3
Atom  50Ti>  basis set group =>   3
Atom  51Ti>  basis set group =>   3
Atom  52Ti>  basis set group =>   3
Atom  53Ti>  basis set group =>   3
Atom  54Ti>  basis set group =>   3
Atom  55Ti>  basis set group =>   3
Atom  56Ti>  basis set group =>   3
Atom  57Ti>  basis set group =>   3
Atom  58Ti>  basis set group =>   3
Atom  59Ti>  basis set group =>   3
Atom  60Ti>  basis set group =>   3
Atom  61Ti>  basis set group =>   3
Atom  62Ti>  basis set group =>   3
Atom  63Ti>  basis set group =>   3
Atom  64Ti>  basis set group =>   3
Atom  65Ti>  basis set group =>   3
Atom  66Ti>  basis set group =>   3
Atom  67Ti>  basis set group =>   3
Atom  68Ti>  basis set group =>   3
Atom  69Ti>  basis set group =>   3
Atom  70Ti>  basis set group =>   3
Atom  71Ti>  basis set group =>   3
Atom  72Ti>  basis set group =>   3
Atom  73Ti>  basis set group =>   3
Atom  74Ti>  basis set group =>   3
Atom  75Ti>  basis set group =>   3
Atom  76Ti>  basis set group =>   3
Atom  77Ti>  basis set group =>   3
Atom  78Ti>  basis set group =>   3
---------------------------------
AUXILIARY/J BASIS SET INFORMATION
---------------------------------
There are 3 groups of distinct atoms

 Group   1 Type O   : 12s5p4d2f1g contracted to 6s4p3d1f1g pattern {711111/2111/211/2/1}
 Group   2 Type Ti  : 19s5p5d3f3g contracted to 8s5p5d2f3g pattern {121111111/11111/11111/21/111}
 Group   3 Type Q,> :  contracted to  pattern {}

Atom   0O    basis set group =>   1
Atom   1Ti   basis set group =>   2
Atom   2Ti   basis set group =>   2
Atom   3O    basis set group =>   1
Atom   4O    basis set group =>   1
Atom   5O    basis set group =>   1
Atom   6O    basis set group =>   1
Atom   7O    basis set group =>   1
Atom   8O    basis set group =>   1
Atom   9O    basis set group =>   1
Atom  10O    basis set group =>   1
Atom  11O    basis set group =>   1
Atom  12Ti>  basis set group =>   3
Atom  13Ti>  basis set group =>   3
Atom  14Ti>  basis set group =>   3
Atom  15Ti>  basis set group =>   3
Atom  16Ti>  basis set group =>   3
Atom  17Ti>  basis set group =>   3
Atom  18Ti>  basis set group =>   3
Atom  19Ti>  basis set group =>   3
Atom  20Ti>  basis set group =>   3
Atom  21Ti>  basis set group =>   3
Atom  22Ti>  basis set group =>   3
Atom  23Ti>  basis set group =>   3
Atom  24Ti>  basis set group =>   3
Atom  25Ti>  basis set group =>   3
Atom  26Ti>  basis set group =>   3
Atom  27Ti>  basis set group =>   3
Atom  28Ti>  basis set group =>   3
Atom  29Ti>  basis set group =>   3
Atom  30Ti>  basis set group =>   3
Atom  31Ti>  basis set group =>   3
Atom  32Ti>  basis set group =>   3
Atom  33Ti>  basis set group =>   3
Atom  34Ti>  basis set group =>   3
Atom  35Ti>  basis set group =>   3
Atom  36Ti>  basis set group =>   3
Atom  37Ti>  basis set group =>   3
Atom  38Ti>  basis set group =>   3
Atom  39Ti>  basis set group =>   3
Atom  40Ti>  basis set group =>   3
Atom  41Ti>  basis set group =>   3
Atom  42Ti>  basis set group =>   3
Atom  43Ti>  basis set group =>   3
Atom  44Ti>  basis set group =>   3
Atom  45Ti>  basis set group =>   3
Atom  46Ti>  basis set group =>   3
Atom  47Ti>  basis set group =>   3
Atom  48Ti>  basis set group =>   3
Atom  49Ti>  basis set group =>   3
Atom  50Ti>  basis set group =>   3
Atom  51Ti>  basis set group =>   3
Atom  52Ti>  basis set group =>   3
Atom  53Ti>  basis set group =>   3
Atom  54Ti>  basis set group =>   3
Atom  55Ti>  basis set group =>   3
Atom  56Ti>  basis set group =>   3
Atom  57Ti>  basis set group =>   3
Atom  58Ti>  basis set group =>   3
Atom  59Ti>  basis set group =>   3
Atom  60Ti>  basis set group =>   3
Atom  61Ti>  basis set group =>   3
Atom  62Ti>  basis set group =>   3
Atom  63Ti>  basis set group =>   3
Atom  64Ti>  basis set group =>   3
Atom  65Ti>  basis set group =>   3
Atom  66Ti>  basis set group =>   3
Atom  67Ti>  basis set group =>   3
Atom  68Ti>  basis set group =>   3
Atom  69Ti>  basis set group =>   3
Atom  70Ti>  basis set group =>   3
Atom  71Ti>  basis set group =>   3
Atom  72Ti>  basis set group =>   3
Atom  73Ti>  basis set group =>   3
Atom  74Ti>  basis set group =>   3
Atom  75Ti>  basis set group =>   3
Atom  76Ti>  basis set group =>   3
Atom  77Ti>  basis set group =>   3
Atom  78Ti>  basis set group =>   3
---------------------------------
AUXILIARY/C BASIS SET INFORMATION
---------------------------------
There are 3 groups of distinct atoms

 Group   1 Type O   : 9s8p7d5f3g1h contracted to 9s8p7d5f3g1h pattern {111111111/11111111/1111111/11111/111/1}
 Group   2 Type Ti  : 15s13p11d8f7g5h2i contracted to 15s13p11d8f7g5h2i pattern {111111111111111/1111111111111/11111111111/11111111/1111111/11111/11}
 Group   3 Type Q,> :  contracted to  pattern {}

Atom   0O    basis set group =>   1
Atom   1Ti   basis set group =>   2
Atom   2Ti   basis set group =>   2
Atom   3O    basis set group =>   1
Atom   4O    basis set group =>   1
Atom   5O    basis set group =>   1
Atom   6O    basis set group =>   1
Atom   7O    basis set group =>   1
Atom   8O    basis set group =>   1
Atom   9O    basis set group =>   1
Atom  10O    basis set group =>   1
Atom  11O    basis set group =>   1
Atom  12Ti>  basis set group =>   3
Atom  13Ti>  basis set group =>   3
Atom  14Ti>  basis set group =>   3
Atom  15Ti>  basis set group =>   3
Atom  16Ti>  basis set group =>   3
Atom  17Ti>  basis set group =>   3
Atom  18Ti>  basis set group =>   3
Atom  19Ti>  basis set group =>   3
Atom  20Ti>  basis set group =>   3
Atom  21Ti>  basis set group =>   3
Atom  22Ti>  basis set group =>   3
Atom  23Ti>  basis set group =>   3
Atom  24Ti>  basis set group =>   3
Atom  25Ti>  basis set group =>   3
Atom  26Ti>  basis set group =>   3
Atom  27Ti>  basis set group =>   3
Atom  28Ti>  basis set group =>   3
Atom  29Ti>  basis set group =>   3
Atom  30Ti>  basis set group =>   3
Atom  31Ti>  basis set group =>   3
Atom  32Ti>  basis set group =>   3
Atom  33Ti>  basis set group =>   3
Atom  34Ti>  basis set group =>   3
Atom  35Ti>  basis set group =>   3
Atom  36Ti>  basis set group =>   3
Atom  37Ti>  basis set group =>   3
Atom  38Ti>  basis set group =>   3
Atom  39Ti>  basis set group =>   3
Atom  40Ti>  basis set group =>   3
Atom  41Ti>  basis set group =>   3
Atom  42Ti>  basis set group =>   3
Atom  43Ti>  basis set group =>   3
Atom  44Ti>  basis set group =>   3
Atom  45Ti>  basis set group =>   3
Atom  46Ti>  basis set group =>   3
Atom  47Ti>  basis set group =>   3
Atom  48Ti>  basis set group =>   3
Atom  49Ti>  basis set group =>   3
Atom  50Ti>  basis set group =>   3
Atom  51Ti>  basis set group =>   3
Atom  52Ti>  basis set group =>   3
Atom  53Ti>  basis set group =>   3
Atom  54Ti>  basis set group =>   3
Atom  55Ti>  basis set group =>   3
Atom  56Ti>  basis set group =>   3
Atom  57Ti>  basis set group =>   3
Atom  58Ti>  basis set group =>   3
Atom  59Ti>  basis set group =>   3
Atom  60Ti>  basis set group =>   3
Atom  61Ti>  basis set group =>   3
Atom  62Ti>  basis set group =>   3
Atom  63Ti>  basis set group =>   3
Atom  64Ti>  basis set group =>   3
Atom  65Ti>  basis set group =>   3
Atom  66Ti>  basis set group =>   3
Atom  67Ti>  basis set group =>   3
Atom  68Ti>  basis set group =>   3
Atom  69Ti>  basis set group =>   3
Atom  70Ti>  basis set group =>   3
Atom  71Ti>  basis set group =>   3
Atom  72Ti>  basis set group =>   3
Atom  73Ti>  basis set group =>   3
Atom  74Ti>  basis set group =>   3
Atom  75Ti>  basis set group =>   3
Atom  76Ti>  basis set group =>   3
Atom  77Ti>  basis set group =>   3
Atom  78Ti>  basis set group =>   3
-------------------------
ECP PARAMETER INFORMATION
-------------------------

 Group 1, Type Ti ECP (replacing 0 core electrons, lmax=3)

Atom  12Ti>  ECP group =>   1
Atom  13Ti>  ECP group =>   1
Atom  14Ti>  ECP group =>   1
Atom  15Ti>  ECP group =>   1
Atom  16Ti>  ECP group =>   1
Atom  17Ti>  ECP group =>   1
Atom  18Ti>  ECP group =>   1
Atom  19Ti>  ECP group =>   1
Atom  20Ti>  ECP group =>   1
Atom  21Ti>  ECP group =>   1
Atom  22Ti>  ECP group =>   1
Atom  23Ti>  ECP group =>   1
Atom  24Ti>  ECP group =>   1
Atom  25Ti>  ECP group =>   1
Atom  26Ti>  ECP group =>   1
Atom  27Ti>  ECP group =>   1
Atom  28Ti>  ECP group =>   1
Atom  29Ti>  ECP group =>   1
Atom  30Ti>  ECP group =>   1
Atom  31Ti>  ECP group =>   1
Atom  32Ti>  ECP group =>   1
Atom  33Ti>  ECP group =>   1
Atom  34Ti>  ECP group =>   1
Atom  35Ti>  ECP group =>   1
Atom  36Ti>  ECP group =>   1
Atom  37Ti>  ECP group =>   1
Atom  38Ti>  ECP group =>   1
Atom  39Ti>  ECP group =>   1
Atom  40Ti>  ECP group =>   1
Atom  41Ti>  ECP group =>   1
Atom  42Ti>  ECP group =>   1
Atom  43Ti>  ECP group =>   1
Atom  44Ti>  ECP group =>   1
Atom  45Ti>  ECP group =>   1
Atom  46Ti>  ECP group =>   1
Atom  47Ti>  ECP group =>   1
Atom  48Ti>  ECP group =>   1
Atom  49Ti>  ECP group =>   1
Atom  50Ti>  ECP group =>   1
Atom  51Ti>  ECP group =>   1
Atom  52Ti>  ECP group =>   1
Atom  53Ti>  ECP group =>   1
Atom  54Ti>  ECP group =>   1
Atom  55Ti>  ECP group =>   1
Atom  56Ti>  ECP group =>   1
Atom  57Ti>  ECP group =>   1
Atom  58Ti>  ECP group =>   1
Atom  59Ti>  ECP group =>   1
Atom  60Ti>  ECP group =>   1
Atom  61Ti>  ECP group =>   1
Atom  62Ti>  ECP group =>   1
Atom  63Ti>  ECP group =>   1
Atom  64Ti>  ECP group =>   1
Atom  65Ti>  ECP group =>   1
Atom  66Ti>  ECP group =>   1
Atom  67Ti>  ECP group =>   1
Atom  68Ti>  ECP group =>   1
Atom  69Ti>  ECP group =>   1
Atom  70Ti>  ECP group =>   1
Atom  71Ti>  ECP group =>   1
Atom  72Ti>  ECP group =>   1
Atom  73Ti>  ECP group =>   1
Atom  74Ti>  ECP group =>   1
Atom  75Ti>  ECP group =>   1
Atom  76Ti>  ECP group =>   1
Atom  77Ti>  ECP group =>   1
Atom  78Ti>  ECP group =>   1



           ************************************************************
           *        Program running with 16 parallel MPI-processes    *
           *              working on a common directory               *
           ************************************************************
------------------------------------------------------------------------------
                           ORCA GTO INTEGRAL CALCULATION
                           -- RI-GTO INTEGRALS CHOSEN --
------------------------------------------------------------------------------
------------------------------------------------------------------------------
                   ___                                                        
                  /   \      - P O W E R E D   B Y -                         
                 /     \                                                     
                 |  |  |   _    _      __       _____    __    __             
                 |  |  |  | |  | |    /  \     |  _  \  |  |  /  |          
                  \  \/   | |  | |   /    \    | | | |  |  | /  /          
                 / \  \   | |__| |  /  /\  \   | |_| |  |  |/  /          
                |  |  |   |  __  | /  /__\  \  |    /   |      \           
                |  |  |   | |  | | |   __   |  |    \   |  |\   \          
                \     /   | |  | | |  |  |  |  | |\  \  |  | \   \       
                 \___/    |_|  |_| |__|  |__|  |_| \__\ |__|  \__/        
                                                                              
                      - O R C A' S   B I G   F R I E N D -                    
                                      &                                       
                       - I N T E G R A L  F E E D E R -                       
                                                                              
 v1 FN, 2020, v2 2021                                                         
------------------------------------------------------------------------------


Reading SHARK input file orca.SHARKINP.tmp ... ok
----------------------
SHARK INTEGRAL PACKAGE
----------------------

Number of atoms                             ...     79
Number of basis functions                   ...    756
Number of shells                            ...    224
Maximum angular momentum                    ...      4
Integral batch strategy                     ... SHARK/LIBINT Hybrid
RI-J (if used) integral strategy            ... SPLIT-RIJ (Revised 2003 algorithm where possible)
Printlevel                                  ...      1
Contraction scheme used                     ... SEGMENTED contraction
Coulomb Range Separation                    ... NOT USED
Exchange Range Separation                   ... NOT USED
Finite Nucleus Model                        ... NOT USED
Auxiliary Coulomb fitting basis             ... AVAILABLE
   # of basis functions in Aux-J            ...    668
   # of shells in Aux-J                     ...    196
   Maximum angular momentum in Aux-J        ...      4
Auxiliary J/K fitting basis                 ... NOT available
Auxiliary Correlation fitting basis         ... AVAILABLE
   # of basis functions in Aux-C            ...   2028
   # of shells in Aux-C                     ...    452
   Maximum angular momentum in Aux-C        ...      6
Auxiliary 'external' fitting basis          ... NOT available
Integral threshold                          ...     1.000000e-12
Primitive cut-off                           ...     1.000000e-14
Primitive pair pre-selection threshold      ...     1.000000e-14

Calculating pre-screening integrals         ... done (  1.0 sec) Dimension = 224
Organizing shell pair data                  ... done (  0.5 sec)
Shell pair information
Total number of shell pairs                 ...     25200
[...]
 69 Q      0.0000     4.0000     4.0000     0.0000     0.0000     0.0000
 70 Q      0.0000     4.0000     4.0000     0.0000     0.0000     0.0000
 71 Q      0.0000     4.0000     4.0000     0.0000     0.0000     0.0000
 72 Q      0.0000     4.0000     4.0000     0.0000     0.0000     0.0000
 73 Q      0.0000     4.0000     4.0000     0.0000     0.0000     0.0000
 74 Q      0.0000     4.0000     4.0000     0.0000     0.0000     0.0000
 75 Q      0.0000     4.0000     4.0000     0.0000     0.0000     0.0000
 76 Q      0.0000     4.0000     4.0000     0.0000     0.0000     0.0000
 77 Q      0.0000     4.0000     4.0000     0.0000     0.0000     0.0000
 78 Q      0.0000     4.0000     4.0000     0.0000     0.0000     0.0000

  Mayer bond orders larger than 0.100000
B(  0-O ,  1-Ti) :   1.0023 B(  0-O ,  2-Ti) :   1.0025 B(  1-Ti,  3-O ) :   0.6749 
B(  1-Ti,  4-O ) :   1.2459 B(  1-Ti,  5-O ) :   1.2460 B(  1-Ti,  6-O ) :  -0.4752 
B(  1-Ti,  7-O ) :  -0.4752 B(  1-Ti,  8-O ) :   1.3328 B(  1-Ti, 10-O ) :   0.4943 
B(  2-Ti,  3-O ) :   0.6749 B(  2-Ti,  4-O ) :  -0.4752 B(  2-Ti,  5-O ) :  -0.4752 
B(  2-Ti,  6-O ) :   1.2460 B(  2-Ti,  7-O ) :   1.2460 B(  2-Ti,  9-O ) :   1.3328 
B(  2-Ti, 11-O ) :   0.4944 

-------
TIMINGS
-------

Total SCF time: 0 days 0 hours 2 min 42 sec 

Total time                  ....     162.797 sec
Sum of individual times     ....     160.833 sec  ( 98.8%)

Fock matrix formation       ....     146.453 sec  ( 90.0%)
  Split-RI-J                ....      16.877 sec  ( 11.5% of F)
  Chain of spheres X        ....     128.035 sec  ( 87.4% of F)
Diagonalization             ....       8.230 sec  (  5.1%)
Density matrix formation    ....       0.260 sec  (  0.2%)
Population analysis         ....       0.147 sec  (  0.1%)
Initial guess               ....       0.210 sec  (  0.1%)
Orbital Transformation      ....       0.000 sec  (  0.0%)
Orbital Orthonormalization  ....       0.000 sec  (  0.0%)
DIIS solution               ....       4.759 sec  (  2.9%)

Maximum memory used throughout the entire SCF-calculation: 140.8 MB


           ************************************************************
           *        Program running with 16 parallel MPI-processes    *
           *              working on a common directory               *
           ************************************************************

------------------------------------------------------------------------------
                                ORCA  MP2 
------------------------------------------------------------------------------

Freezing NCore=56 chemical core electrons
Initializing SHARK ... done


------------------------------------------------------------------------------
                           ORCA ORBITAL LOCALIZATION
------------------------------------------------------------------------------

Input orbitals are from                  ... orca.gbw
Output orbitals are to                   ... orca.loc
Max. number of iterations                ... 128
Localizations seeded randomly            ... off
Convergence tolerance                    ... 2.000e-07
Treshold for strong local MOs            ... 9.500e-01
Treshold for bond MOs                    ... 8.500e-01
Operator                                 ... 0
Orbital range for localization           ... 28 to 67
Localization criterion                   ... FOSTER-BOYS (AUGMENTED HESSIAN)
Doing the dipole integrals     ... o.k.
Initial value of the localization sum :   906.358557
ITERATION   0 : L= 1182.9287193069 DL=  2.77e+02 (AVERGE_DL)=    0.5954637948 
ITERATION   1 : L= 1212.2132575551 DL=  2.93e+01 (AVERGE_DL)=    0.1937634635 
ITERATION   2 : L= 1213.3815409157 DL=  1.17e+00 (AVERGE_DL)=    0.0387014106 
ITERATION   3 : L= 1213.4690330540 DL=  8.75e-02 (AVERGE_DL)=    0.0105910060 
ITERATION   4 : L= 1213.5407292902 DL=  7.17e-02 (AVERGE_DL)=    0.0095874007 
ITERATION   5 : L= 1213.5941040564 DL=  5.34e-02 (AVERGE_DL)=    0.0082721936 
ITERATION   6 : L= 1213.6276629380 DL=  3.36e-02 (AVERGE_DL)=    0.0065592840 
ITERATION   7 : L= 1213.6467730841 DL=  1.91e-02 (AVERGE_DL)=    0.0049497664 
ITERATION   8 : L= 1213.6575181515 DL=  1.07e-02 (AVERGE_DL)=    0.0037115667 
ITERATION   9 : L= 1213.6638395637 DL=  6.32e-03 (AVERGE_DL)=    0.0028468183 
ITERATION  10 : L= 1213.6678735619 DL=  4.03e-03 (AVERGE_DL)=    0.0022741576 
ITERATION  11 : L= 1213.6707061425 DL=  2.83e-03 (AVERGE_DL)=    0.0019056531 
ITERATION  12 : L= 1213.6728784303 DL=  2.17e-03 (AVERGE_DL)=    0.0016688272 
ITERATION  13 : L= 1213.6746599829 DL=  1.78e-03 (AVERGE_DL)=    0.0015113047 
ITERATION  14 : L= 1213.6761870706 DL=  1.53e-03 (AVERGE_DL)=    0.0013992158 
ITERATION  15 : L= 1213.6775310085 DL=  1.34e-03 (AVERGE_DL)=    0.0013126299 
ITERATION  16 : L= 1213.6787313006 DL=  1.20e-03 (AVERGE_DL)=    0.0012404983 
ITERATION  17 : L= 1213.6798116863 DL=  1.08e-03 (AVERGE_DL)=    0.0011769069 
ITERATION  18 : L= 1213.6807878913 DL=  9.76e-04 (AVERGE_DL)=    0.0011187246 
ITERATION  19 : L= 1213.6816713332 DL=  8.83e-04 (AVERGE_DL)=    0.0010642452 
ITERATION  20 : L= 1213.6824709724 DL=  8.00e-04 (AVERGE_DL)=    0.0010125110 
ITERATION  21 : L= 1213.6831942366 DL=  7.23e-04 (AVERGE_DL)=    0.0009629443 
ITERATION  22 : L= 1213.6838475424 DL=  6.53e-04 (AVERGE_DL)=    0.0009151893 
ITERATION  23 : L= 1213.6844365939 DL=  5.89e-04 (AVERGE_DL)=    0.0008690192 
ITERATION  24 : L= 1213.6849665551 DL=  5.30e-04 (AVERGE_DL)=    0.0008242799 
ITERATION  25 : L= 1213.6854421710 DL=  4.76e-04 (AVERGE_DL)=    0.0007808738 
ITERATION  26 : L= 1213.6858678853 DL=  4.26e-04 (AVERGE_DL)=    0.0007387744 
ITERATION  27 : L= 1213.6862478377 DL=  3.80e-04 (AVERGE_DL)=    0.0006979388 
ITERATION  28 : L= 1213.6865859561 DL=  3.38e-04 (AVERGE_DL)=    0.0006583959 
ITERATION  29 : L= 1213.6868859350 DL=  3.00e-04 (AVERGE_DL)=    0.0006201518 
ITERATION  30 : L= 1213.6871512725 DL=  2.65e-04 (AVERGE_DL)=    0.0005832464 
ITERATION  31 : L= 1213.6873852560 DL=  2.34e-04 (AVERGE_DL)=    0.0005477032 
ITERATION  32 : L= 1213.6875909806 DL=  2.06e-04 (AVERGE_DL)=    0.0005135655 
ITERATION  33 : L= 1213.6877713409 DL=  1.80e-04 (AVERGE_DL)=    0.0004808649 
ITERATION  34 : L= 1213.6879290150 DL=  1.58e-04 (AVERGE_DL)=    0.0004496069 
ITERATION  35 : L= 1213.6880664897 DL=  1.37e-04 (AVERGE_DL)=    0.0004198209 
ITERATION  36 : L= 1213.6881860499 DL=  1.20e-04 (AVERGE_DL)=    0.0003915128 
ITERATION  37 : L= 1213.6882897790 DL=  1.04e-04 (AVERGE_DL)=    0.0003646725 
ITERATION  38 : L= 1213.6883795652 DL=  8.98e-05 (AVERGE_DL)=    0.0003392795 
ITERATION  39 : L= 1213.6884571263 DL=  7.76e-05 (AVERGE_DL)=    0.0003153367 
ITERATION  40 : L= 1213.6885239941 DL=  6.69e-05 (AVERGE_DL)=    0.0002927934 
ITERATION  41 : L= 1213.6885815412 DL=  5.75e-05 (AVERGE_DL)=    0.0002716217 
ITERATION  42 : L= 1213.6886309914 DL=  4.95e-05 (AVERGE_DL)=    0.0002517890 
ITERATION  43 : L= 1213.6886734171 DL=  4.24e-05 (AVERGE_DL)=    0.0002332208 
ITERATION  44 : L= 1213.6887097738 DL=  3.64e-05 (AVERGE_DL)=    0.0002158962 
ITERATION  45 : L= 1213.6887408999 DL=  3.11e-05 (AVERGE_DL)=    0.0001997629 
ITERATION  46 : L= 1213.6887675132 DL=  2.66e-05 (AVERGE_DL)=    0.0001847151 
ITERATION  47 : L= 1213.6887902595 DL=  2.27e-05 (AVERGE_DL)=    0.0001707684 
ITERATION  48 : L= 1213.6888096855 DL=  1.94e-05 (AVERGE_DL)=    0.0001578137 
ITERATION  49 : L= 1213.6888262709 DL=  1.66e-05 (AVERGE_DL)=    0.0001458197 
ITERATION  50 : L= 1213.6888404257 DL=  1.42e-05 (AVERGE_DL)=    0.0001347111 
ITERATION  51 : L= 1213.6888525089 DL=  1.21e-05 (AVERGE_DL)=    0.0001244641 
ITERATION  52 : L= 1213.6888628182 DL=  1.03e-05 (AVERGE_DL)=    0.0001149653 
ITERATION  53 : L= 1213.6888716195 DL=  8.80e-06 (AVERGE_DL)=    0.0001062252 
ITERATION  54 : L= 1213.6888791374 DL=  7.52e-06 (AVERGE_DL)=    0.0000981750 
ITERATION  55 : L= 1213.6888855638 DL=  6.43e-06 (AVERGE_DL)=    0.0000907688 
ITERATION  56 : L= 1213.6888910601 DL=  5.50e-06 (AVERGE_DL)=    0.0000839436 
ITERATION  57 : L= 1213.6888957638 DL=  4.70e-06 (AVERGE_DL)=    0.0000776553 
ITERATION  58 : L= 1213.6888997972 DL=  4.03e-06 (AVERGE_DL)=    0.0000719097 
ITERATION  59 : L= 1213.6889032568 DL=  3.46e-06 (AVERGE_DL)=    0.0000665995 
ITERATION  60 : L= 1213.6889062305 DL=  2.97e-06 (AVERGE_DL)=    0.0000617443 
ITERATION  61 : L= 1213.6889087908 DL=  2.56e-06 (AVERGE_DL)=    0.0000572927 
ITERATION  62 : L= 1213.6889109998 DL=  2.21e-06 (AVERGE_DL)=    0.0000532173 
ITERATION  63 : L= 1213.6889129086 DL=  1.91e-06 (AVERGE_DL)=    0.0000494684 
ITERATION  64 : L= 1213.6889145621 DL=  1.65e-06 (AVERGE_DL)=    0.0000460421 
ITERATION  65 : L= 1213.6889159967 DL=  1.43e-06 (AVERGE_DL)=    0.0000428861 
ITERATION  66 : L= 1213.6889172450 DL=  1.25e-06 (AVERGE_DL)=    0.0000400055 
ITERATION  67 : L= 1213.6889183332 DL=  1.09e-06 (AVERGE_DL)=    0.0000373516 
ITERATION  68 : L= 1213.6889192853 DL=  9.52e-07 (AVERGE_DL)=    0.0000349375 
LOCALIZATION SUM CONVERGED

------------------------------------------------------
AUGMENTED HESSIAN OPTIMIZATION OF FOSTER-BOYS ORBITALS
------------------------------------------------------

Spin operator:           0
Orbital window:          28 to 67
Number of iterations:    128
Gradient tolerance:      2.000e-07
Number of pairs:         780
Davidson threshold:      2000
Diagonalization method:  LAPACK
Iter:    0   L: 1213.6889192853   Grad. norm: 5.471614e-03
   *** Likely close to a maximum now. ***
       Augmented Hessian eigenvalues:  1.69e-05 -3.55e-02 -3.56e-02 -9.07e-02 ... 
Iter:    1   L: 1213.6889276917   Grad. norm: 9.757156e-05
Iter:    2   L: 1213.6889276929   Grad. norm: 3.145984e-09
LOCALIZATION HAS CONVERGED.

Eigenvalues of the Hessian:
  0 -3.568e-02
  1 -3.568e-02
  2 -9.188e-02
  3 -9.189e-02
  4 -9.190e-02
  5 -9.190e-02
  6 -9.892e-02
  7 -3.804e-01
  8 -3.805e-01
  9 -4.172e-01
    ...


------------------------------------------------------------------------------- 
                    LOCALIZED MOLECULAR ORBITAL COMPOSITIONS                   
------------------------------------------------------------------------------- 

The Mulliken populations for each LMO on each atom are computed
The LMO`s will be ordered according to atom index and type
  (A) Strongly localized MO`s have populations of >=0.950 on one atom
  (B) Two center bond orbitals have populations of >=0.850 on two atoms
  (C) Other MO`s are considered to be `delocalized`

FOUND  -  18 strongly local MO`s
       -  22 two center bond MO`s
       -   0 significantly delocalized MO`s

Rather strongly localized orbitals:
MO  45:  11O  -   1.055071
MO  44:  10O  -   1.055073
MO  43:   9O  -   0.966846
MO  42:   9O  -   0.966843
MO  41:   8O  -   0.966845
MO  40:   8O  -   0.966845
MO  39:   7O  -   0.981430
MO  38:   7O  -   0.972322
MO  37:   7O  -   0.958910
MO  36:   6O  -   0.972321
MO  35:   6O  -   0.981432
MO  34:   6O  -   0.958911
MO  33:   5O  -   0.981426
MO  32:   5O  -   0.972317
MO  31:   5O  -   0.958919
MO  30:   4O  -   0.981427
MO  29:   4O  -   0.972320
MO  28:   4O  -   0.958916
Bond-like localized orbitals:
MO  67:  11O  -   0.911888  and   2Ti -   0.155388
MO  66:  11O  -   0.947363  and   1Ti -   0.032959
MO  65:  11O  -   0.947348  and   1Ti -   0.032969
MO  64:  10O  -   0.947348  and   2Ti -   0.032969
MO  63:  10O  -   0.947362  and   2Ti -   0.032960
MO  62:  10O  -   0.911887  and   1Ti -   0.155390
MO  61:   9O  -   0.771520  and   2Ti -   0.282139
MO  60:   9O  -   0.852500  and   1Ti -   0.083026
MO  59:   8O  -   0.852503  and   2Ti -   0.083024
MO  58:   8O  -   0.771524  and   1Ti -   0.282136
MO  57:   7O  -   0.856783  and   2Ti -   0.117771
MO  56:   6O  -   0.856778  and   2Ti -   0.117784
MO  55:   5O  -   0.856776  and   1Ti -   0.117787
MO  54:   4O  -   0.856778  and   1Ti -   0.117780
MO  53:   3O  -   0.904243  and   2Ti -   0.058862
MO  52:   3O  -   0.915147  and   2Ti -   0.045830
MO  51:   3O  -   0.904248  and   1Ti -   0.058864
MO  50:   3O  -   0.915154  and   1Ti -   0.045824
MO  49:   2Ti -   0.197633  and   0O  -   0.772090
MO  48:   1Ti -   0.053753  and   0O  -   0.896201
MO  47:   1Ti -   0.197641  and   0O  -   0.772055
MO  46:   1Ti -   0.053764  and   0O  -   0.896249
Localized MO's were stored in: orca.loc



Calculating differential overlap integrals ... ok
Threshold for domain construction in prescreening: TCutDOPre = 3.0e-02

--------------------------
ELECTRON PAIR PRESCREENING
--------------------------

Dipole-based pair screening          .... used

   TCutDOij = 1.000000e-05
   TCutPre  = 1.000000e-06
   .... Finished loop over pairs
Total time spent in the prescreening                  ...     0.004 sec
sum of pair energies estimated for screened out pairs ...       0.000000000000 Eh

---------------------------
MAP CONSTRUCTION THRESHOLDS
---------------------------
    TCutMKN     ...     1.0e-03
    TCutDO      ...     1.0e-02
    TCutC(MO)   ...     1.0e-03
    TCutC(PAO)  ...     1.0e-03

--------------------------------
LOCAL RI TRANSFORMATION (IAVPAO)
--------------------------------

Orbital window:      28 to 67
Number of PAOs:     756
Basis functions:    756 (224 shells)
Aux. functions:    2028 (452 shells)
Use SHARK:           on

Processing maps (0.0 sec)
Average map sizes:
   Aux shells -> MOs              40.0
   Aux shells -> PAOs            756.0
   MOs        -> AO shells       224.0
   PAOs       -> AO shells       224.0

Calculating integrals (3.5 sec, 467.909 MB)
Sorting integrals (0.8 sec, 467.886 MB)
Total time for the integral transformation: 4.4 sec

----------------------------
Local MP2 Energy Calculation
----------------------------
Number of orbital pairs included:    820
Truncation parameters:
    PAOOverlapThresh    =        1.000e-08
    TCutPNO             =        1.000e-08

Spin component scaling                      .... not used
MP2 energy scaling factor                   .... 1.000

Formation of semicanonical amplitudes.
 10% done.
 20% done.
 30% done.
 40% done.
 50% done.
 60% done.
 70% done.
 80% done.
 90% done.
100% done.

Finished the LMP2 guess in 49.5 sec.

Average number of PAOs per pair        696.5
Average number of nrPAOs per pair      647.7
Average number of PNOs per pair         49.4
Average number of AUX  per pair        1601.7

Semicanonical MP2 energy:                   -2.898875865676 Eh
Semicanonical MP2 energy in PNO basis:      -2.897946129905 Eh

Initial amplitudes guess done. Entering DLPNO-MP2 iteration loop:
   Max. no of iterations          ...  100
   Energy convergence tolerance   ...    1.0e-09 Eh
   Residual convergence tolerance ...    5.0e-09
   Fock matrix cutoff             ...    1.0e-05 Eh
   Max # vectors in DIIS          ...  7
   Start iteration of DIIS        ...  0
   Levelshift                     ...  2.000e-01 Eh
   Damping before turning on DIIS ...  5.000e-01
   Damping after turning on DIIS  ...  0.000e+00

                           *** Turning on DIIS ***
Iter=   0:  ECORR= -2.971422694261  DE=   7.3e-02 RMAX=   8.3e-03
Iter=   1:  ECORR= -3.005507936136  DE=   3.4e-02 RMAX=   3.9e-03
Iter=   2:  ECORR= -3.011414637559  DE=   5.9e-03 RMAX=   1.1e-03
Iter=   3:  ECORR= -3.012368523910  DE=   9.5e-04 RMAX=   3.7e-04
Iter=   4:  ECORR= -3.012450672553  DE=   8.2e-05 RMAX=   9.5e-05
Iter=   5:  ECORR= -3.012448646015  DE=   2.0e-06 RMAX=   2.8e-05
Iter=   6:  ECORR= -3.012447029869  DE=   1.6e-06 RMAX=   6.4e-06
Iter=   7:  ECORR= -3.012446844666  DE=   1.9e-07 RMAX=   1.6e-06
Iter=   8:  ECORR= -3.012446881360  DE=   3.7e-08 RMAX=   3.3e-07
Iter=   9:  ECORR= -3.012446886333  DE=   5.0e-09 RMAX=   6.7e-08
Iter=  10:  ECORR= -3.012446895440  DE=   9.1e-09 RMAX=   1.3e-08
Iter=  11:  ECORR= -3.012446895625  DE=   1.9e-10 RMAX=   2.6e-09 => CONVERGED

Finished the DLPNO-MP2 iterations in 21.9 sec.

LMP2 correlation energy (all non-screened pairs)      ...     -3.012446895625 Eh
Semicanonical PNO correction to energy                ...     -0.000929735771 Eh
Sum of pair energies estimated for screened out pairs ...      0.000000000000 Eh
                                                         -----------------------
Total:                                                ...     -3.013376631396 Eh

------------------------------------------------------
 DLPNO-MP2 CORRELATION ENERGY:      -3.013376631396 Eh
------------------------------------------------------

TIMINGS FOR DLPNO-MP2:
Localization                             ...        0.870 sec
Differential overlap integrals           ...        0.885 sec
Prescreening                             ...        0.616 sec
Map setup                                ...        0.043 sec
(ia|v) trafo                             ...        4.364 sec
Semicanonical amplitudes                 ...       39.013 sec
PNO construction                         ...        6.782 sec
DLPNO-MP2 iterations                     ...       21.867 sec
                                             ----------------
Total time                                         79.109 sec


---------------------------------------
MP2 TOTAL ENERGY:    -5089.982790027 Eh
---------------------------------------

Maximum memory used throughout the entire MP2-calculation: 617.9 MB

-------------------------   --------------------
FINAL SINGLE POINT ENERGY     -5089.982790027128
-------------------------   --------------------


                            ***************************************
                            *     ORCA property calculations      *
                            ***************************************


  WARNING: The energy has been calculated at the MP2 level but the densities
           used in the property calculations are still SCF densities
           MP2 response densities have not been calculated 
           use %mp2 Density relaxed end
           or  %mp2 Density unrelaxed end

                                    ---------------------
                                    Active property flags
                                    ---------------------
   (+) Dipole Moment


------------------------------------------------------------------------------
                       ORCA ELECTRIC PROPERTIES CALCULATION
------------------------------------------------------------------------------

Dipole Moment Calculation                       ... on
Quadrupole Moment Calculation                   ... off
Polarizability Calculation                      ... off
GBWName                                         ... orca.gbw
Electron density                                ... orca.scfp
The origin for moment calculation is the CENTER OF MASS  = ( 0.000007, -0.000002 -2.185680)

-------------
DIPOLE MOMENT
-------------
                                X             Y             Z
Electronic contribution:      0.00012       0.00001       8.30608
Nuclear contribution   :     -0.01261       0.00011   -1455.33764
                        -----------------------------------------
Total Dipole Moment    :     -0.01250       0.00012   -1447.03157
                        -----------------------------------------
Magnitude (a.u.)       :   1447.03157
Magnitude (Debye)      :   3678.06194



--------------------
Rotational spectrum 
--------------------
 
Rotational constants in cm-1:     0.039839     0.015763     0.014329 
Rotational constants in MHz :  1194.357760   472.561051   429.565796 

 Dipole components along the rotational axes: 
x,y,z [a.u.] :     0.000625    -0.010891 -1447.031567 
x,y,z [Debye]:     0.001588    -0.027682 -3678.061942 

 

Timings for individual modules:

Sum of individual times         ...      354.556 sec (=   5.909 min)
GTO integral calculation        ...      110.585 sec (=   1.843 min)  31.2 %
SCF iterations                  ...      163.788 sec (=   2.730 min)  46.2 %
MP2 module                      ...       80.183 sec (=   1.336 min)  22.6 %
                             ****ORCA TERMINATED NORMALLY****
TOTAL RUN TIME: 0 days 0 hours 5 minutes 55 seconds 877 msec
