
                                 *****************
                                 * O   R   C   A *
                                 *****************

                                            #,                                       
                                            ###                                      
                                            ####                                     
                                            #####                                    
                                            ######                                   
                                           ########,                                 
                                     ,,################,,,,,                         
                               ,,#################################,,                 
                          ,,##########################################,,             
                       ,#########################################, ''#####,          
                    ,#############################################,,   '####,        
                  ,##################################################,,,,####,       
                ,###########''''           ''''###############################       
              ,#####''   ,,,,##########,,,,          '''####'''          '####       
            ,##' ,,,,###########################,,,                        '##       
           ' ,,###''''                  '''############,,,                           
         ,,##''                                '''############,,,,        ,,,,,,###''
      ,#''                                            '''#######################'''  
     '                                                          ''''####''''         
             ,#######,   #######,   ,#######,      ##                                
            ,#'     '#,  ##    ##  ,#'     '#,    #''#        ######   ,####,        
            ##       ##  ##   ,#'  ##            #'  '#       #        #'  '#        
            ##       ##  #######   ##           ,######,      #####,   #    #        
            '#,     ,#'  ##    ##  '#,     ,#' ,#      #,         ##   #,  ,#        
             '#######'   ##     ##  '#######'  #'      '#     #####' # '####'        



                  #######################################################
                  #                        -***-                        #
                  #          Department of theory and spectroscopy      #
                  #    Directorship and core code : Frank Neese         #
                  #        Max Planck Institute fuer Kohlenforschung    #
                  #                Kaiser Wilhelm Platz 1               #
                  #                 D-45470 Muelheim/Ruhr               #
                  #                      Germany                        #
                  #                                                     #
                  #                  All rights reserved                #
                  #                        -***-                        #
                  #######################################################


                         Program Version 5.0.1 -  RELEASE  -


 With contributions from (in alphabetic order):
   Daniel Aravena         : Magnetic Suceptibility
   Michael Atanasov       : Ab Initio Ligand Field Theory (pilot matlab implementation)
   Alexander A. Auer      : GIAO ZORA, VPT2 properties, NMR spectrum
   Ute Becker             : Parallelization
   Giovanni Bistoni       : ED, misc. LED, open-shell LED, HFLD
   Martin Brehm           : Molecular dynamics
   Dmytro Bykov           : SCF Hessian
   Vijay G. Chilkuri      : MRCI spin determinant printing, contributions to CSF-ICE
   Dipayan Datta          : RHF DLPNO-CCSD density
   Achintya Kumar Dutta   : EOM-CC, STEOM-CC
   Dmitry Ganyushin       : Spin-Orbit,Spin-Spin,Magnetic field MRCI
   Miquel Garcia          : C-PCM and meta-GGA Hessian, CC/C-PCM, Gaussian charge scheme
   Yang Guo               : DLPNO-NEVPT2, F12-NEVPT2, CIM, IAO-localization
   Andreas Hansen         : Spin unrestricted coupled pair/coupled cluster methods
   Benjamin Helmich-Paris : MC-RPA, TRAH-SCF, COSX integrals
   Lee Huntington         : MR-EOM, pCC
   Robert Izsak           : Overlap fitted RIJCOSX, COSX-SCS-MP3, EOM
   Marcus Kettner         : VPT2
   Christian Kollmar      : KDIIS, OOCD, Brueckner-CCSD(T), CCSD density, CASPT2, CASPT2-K
   Simone Kossmann        : Meta GGA functionals, TD-DFT gradient, OOMP2, MP2 Hessian
   Martin Krupicka        : Initial AUTO-CI
   Lucas Lang             : DCDCAS
   Marvin Lechner         : AUTO-CI (C++ implementation), FIC-MRCC
   Dagmar Lenk            : GEPOL surface, SMD
   Dimitrios Liakos       : Extrapolation schemes; Compound Job, initial MDCI parallelization
   Dimitrios Manganas     : Further ROCIS development; embedding schemes
   Dimitrios Pantazis     : SARC Basis sets
   Anastasios Papadopoulos: AUTO-CI, single reference methods and gradients
   Taras Petrenko         : DFT Hessian,TD-DFT gradient, ASA, ECA, R-Raman, ABS, FL, XAS/XES, NRVS
   Peter Pinski           : DLPNO-MP2, DLPNO-MP2 Gradient
   Christoph Reimann      : Effective Core Potentials
   Marius Retegan         : Local ZFS, SOC
   Christoph Riplinger    : Optimizer, TS searches, QM/MM, DLPNO-CCSD(T), (RO)-DLPNO pert. Triples
   Tobias Risthaus        : Range-separated hybrids, TD-DFT gradient, RPA, STAB
   Michael Roemelt        : Original ROCIS implementation
   Masaaki Saitow         : Open-shell DLPNO-CCSD energy and density
   Barbara Sandhoefer     : DKH picture change effects
   Avijit Sen             : IP-ROCIS
   Kantharuban Sivalingam : CASSCF convergence, NEVPT2, FIC-MRCI
   Bernardo de Souza      : ESD, SOC TD-DFT
   Georgi Stoychev        : AutoAux, RI-MP2 NMR, DLPNO-MP2 response
   Willem Van den Heuvel  : Paramagnetic NMR
   Boris Wezisla          : Elementary symmetry handling
   Frank Wennmohs         : Technical directorship


 We gratefully acknowledge several colleagues who have allowed us to
 interface, adapt or use parts of their codes:
   Stefan Grimme, W. Hujo, H. Kruse, P. Pracht,  : VdW corrections, initial TS optimization,
                  C. Bannwarth, S. Ehlert          DFT functionals, gCP, sTDA/sTD-DF
   Ed Valeev, F. Pavosevic, A. Kumar             : LibInt (2-el integral package), F12 methods
   Garnet Chan, S. Sharma, J. Yang, R. Olivares  : DMRG
   Ulf Ekstrom                                   : XCFun DFT Library
   Mihaly Kallay                                 : mrcc  (arbitrary order and MRCC methods)
   Jiri Pittner, Ondrej Demel                    : Mk-CCSD
   Frank Weinhold                                : gennbo (NPA and NBO analysis)
   Christopher J. Cramer and Donald G. Truhlar   : smd solvation model
   Lars Goerigk                                  : TD-DFT with DH, B97 family of functionals
   V. Asgeirsson, H. Jonsson                     : NEB implementation
   FAccTs GmbH                                   : IRC, NEB, NEB-TS, DLPNO-Multilevel, CI-OPT
                                                   MM, QMMM, 2- and 3-layer-ONIOM, Crystal-QMMM,
                                                   LR-CPCM, SF, NACMEs, symmetry and pop. for TD-DFT,
                                                   nearIR, NL-DFT gradient (VV10), updates on ESD,
                                                   ML-optimized integration grids
   S Lehtola, MJT Oliveira, MAL Marques          : LibXC Library
   Liviu Ungur et al                             : ANISO software


 Your calculation uses the libint2 library for the computation of 2-el integrals
 For citations please refer to: http://libint.valeyev.net

 Your ORCA version has been built with support for libXC version: 5.1.0
 For citations please refer to: https://tddft.org/programs/libxc/

 This ORCA versions uses:
   CBLAS   interface :  Fast vector & matrix operations
   LAPACKE interface :  Fast linear algebra routines
   SCALAPACK package :  Parallel linear algebra routines
   Shared memory     :  Shared parallel matrices
   BLAS/LAPACK       :  OpenBLAS 0.3.15  USE64BITINT DYNAMIC_ARCH NO_AFFINITY Prescott SINGLE_THREADED
        Core in use  :  Prescott
   Copyright (c) 2011-2014, The OpenBLAS Project


SCAN-COORDS
================================================================================

----- Orbital basis set information -----
Your calculation utilizes the basis: def2-SVP
   F. Weigend and R. Ahlrichs, Phys. Chem. Chem. Phys. 7, 3297 (2005).

----- AuxJ basis set information -----
Your calculation utilizes the auxiliary basis: def2/J
   F. Weigend, Phys. Chem. Chem. Phys. 8, 1057 (2006).

================================================================================
                                        WARNINGS
                       Please study these warnings very carefully!
================================================================================

WARNING: Old DensityContainer found on disk!
         Will remove this file - 
         If you want to keep old densities, please start your calculation with a different basename. 

WARNING: The globally-selected AuxJ basis set is optimized for use with ECPs
         Make sure a suitable alternative is explicitly given all heavy elements (Z>36)

INFO   : the flag for use of the SHARK integral package has been found!

================================================================================
                                       INPUT FILE
================================================================================
NAME = orca.inp
|  1> ! NormalSCF SlowConv DIIS
|  2> %maxcore 18000
|  3> %pal
|  4>   nprocs 24
|  5> end
|  6> %pointcharges "orca.bq"
|  7> %method
|  8>   Method DFT
|  9>   Functional PBE
| 10>   RI on
| 11>   RunTyp Energy
| 12> end
| 13> %basis
| 14>   Basis "def2-SVP"
| 15>   Aux "def2/J"
| 16> end
| 17> %scf
| 18>   HFTyp rks
| 19>   Guess Hueckel
| 20>   AutoStart True
| 21>   SCFMode Direct
| 22>   MaxIter 1000
| 23>   sthresh 1e-6
| 24>   AutoTRAHIter 100
| 25> end
| 26> %coords
| 27>   CTyp xyz
| 28>   Mult 1
| 29>   Units angs
| 30>   Charge -18
| 31>   coords
| 32> O:                      0.00000000000    0.00000000000    0.00000000000
| 33> Ti                      0.00000536997    1.48055149700   -1.06892606631
| 34> Ti                      0.00000552101   -1.48055312386   -1.06892138720
| 35> O                       0.00000442396   -0.00000111986   -2.54840301833
| 36> O                      -2.03525914147    1.48054518365   -1.11149385695
| 37> O                       2.03526534753    1.48054527935   -1.11149163807
| 38> O                       2.03526471018   -1.48054700097   -1.11149295951
| 39> O                      -2.03525907462   -1.48054722666   -1.11149503385
| 40> O                      -0.00000037752    2.96109155033   -0.00000271770
| 41> O                      -0.00000037752   -2.96109552160   -0.00000271770
| 42> O                       0.00000449994    2.96109199200   -2.54840438198
| 43> O                       0.00000449994   -2.96109507993   -2.54840438198
| 44> Ti                     -0.00005220374   -0.00000071014   -4.41288396045
| 45> O                      -1.30106804451    1.48054600613   -4.51644966155
| 46> O                       1.30109103436    1.48054591013   -4.51645509582
| 47> O                       1.30109095673   -1.48054821213   -4.51645492343
| 48> O                      -1.30106798933   -1.48054805070   -4.51644946585
| 49> O                      -0.00000306899   -0.00000100232   -6.51331789952
| 50> Ti>    4.00000000000    3.25402319191   -0.00000112036   -1.42716202606
| 51> NewECP
| 52> N_core 0
| 53>   lmax f
| 54>   s 2
| 55>    1      0.860000       9.191690  2
| 56>    2      0.172000       0.008301  2
| 57>   p 2
| 58>    1      0.860000      17.997720  2
| 59>    2      0.172000      -0.032600  2
| 60>   d 2
| 61>    1      1.600000      -9.504310  2
| 62>    2      0.320000      -0.151370  2
| 63>   f 1
| 64>    1      1.000000000    0.000000000 2
| 65> end
| 66> Ti>    4.00000000000   -3.25401610555   -0.00000112036   -1.42716202606
| 67> NewECP
| 68> N_core 0
| 69>   lmax f
| 70>   s 2
| 71>    1      0.860000       9.191690  2
| 72>    2      0.172000       0.008301  2
| 73>   p 2
| 74>    1      0.860000      17.997720  2
| 75>    2      0.172000      -0.032600  2
| 76>   d 2
| 77>    1      1.600000      -9.504310  2
| 78>    2      0.320000      -0.151370  2
| 79>   f 1
| 80>    1      1.000000000    0.000000000 2
| 81> end
| 82> Ti>    4.00000000000    0.00000552101    4.44163394806   -1.06892138720
| 83> NewECP
| 84> N_core 0
| 85>   lmax f
| 86>   s 2
| 87>    1      0.860000       9.191690  2
| 88>    2      0.172000       0.008301  2
| 89>   p 2
| 90>    1      0.860000      17.997720  2
| 91>    2      0.172000      -0.032600  2
| 92>   d 2
| 93>    1      1.600000      -9.504310  2
| 94>    2      0.320000      -0.151370  2
| 95>   f 1
| 96>    1      1.000000000    0.000000000 2
| 97> end
| 98> Ti>    4.00000000000    0.00000536997   -4.44163557493   -1.06892606631
| 99> NewECP
|100> N_core 0
|101>   lmax f
|102>   s 2
|103>    1      0.860000       9.191690  2
|104>    2      0.172000       0.008301  2
|105>   p 2
|106>    1      0.860000      17.997720  2
|107>    2      0.172000      -0.032600  2
|108>   d 2
|109>    1      1.600000      -9.504310  2
|110>    2      0.320000      -0.151370  2
|111>   f 1
|112>    1      1.000000000    0.000000000 2
|113> end
|114> Ti>    4.00000000000   -3.25401668289    2.96109302555   -1.42716235830
|115> NewECP
|116> N_core 0
|117>   lmax f
|118>   s 2
|119>    1      0.860000       9.191690  2
|120>    2      0.172000       0.008301  2
|121>   p 2
|122>    1      0.860000      17.997720  2
|123>    2      0.172000      -0.032600  2
|124>   d 2
|125>    1      1.600000      -9.504310  2
|126>    2      0.320000      -0.151370  2
|127>   f 1
|128>    1      1.000000000    0.000000000 2
|129> end
|130> Ti>    4.00000000000    3.25402261457    2.96109302555   -1.42716235830
|131> NewECP
|132> N_core 0
|133>   lmax f
|134>   s 2
|135>    1      0.860000       9.191690  2
|136>    2      0.172000       0.008301  2
|137>   p 2
|138>    1      0.860000      17.997720  2
|139>    2      0.172000      -0.032600  2
|140>   d 2
|141>    1      1.600000      -9.504310  2
|142>    2      0.320000      -0.151370  2
|143>   f 1
|144>    1      1.000000000    0.000000000 2
|145> end
|146> Ti>    4.00000000000    3.25402261457   -2.96109404638   -1.42716235830
|147> NewECP
|148> N_core 0
|149>   lmax f
|150>   s 2
|151>    1      0.860000       9.191690  2
|152>    2      0.172000       0.008301  2
|153>   p 2
|154>    1      0.860000      17.997720  2
|155>    2      0.172000      -0.032600  2
|156>   d 2
|157>    1      1.600000      -9.504310  2
|158>    2      0.320000      -0.151370  2
|159>   f 1
|160>    1      1.000000000    0.000000000 2
|161> end
|162> Ti>    4.00000000000   -3.25401668289   -2.96109404638   -1.42716235830
|163> NewECP
|164> N_core 0
|165>   lmax f
|166>   s 2
|167>    1      0.860000       9.191690  2
|168>    2      0.172000       0.008301  2
|169>   p 2
|170>    1      0.860000      17.997720  2
|171>    2      0.172000      -0.032600  2
|172>   d 2
|173>    1      1.600000      -9.504310  2
|174>    2      0.320000      -0.151370  2
|175>   f 1
|176>    1      1.000000000    0.000000000 2
|177> end
|178> Ti>    4.00000000000   -0.00005206359    2.96109301637   -4.41288206312
|179> NewECP
|180> N_core 0
|181>   lmax f
|182>   s 2
|183>    1      0.860000       9.191690  2
|184>    2      0.172000       0.008301  2
|185>   p 2
|186>    1      0.860000      17.997720  2
|187>    2      0.172000      -0.032600  2
|188>   d 2
|189>    1      1.600000      -9.504310  2
|190>    2      0.320000      -0.151370  2
|191>   f 1
|192>    1      1.000000000    0.000000000 2
|193> end
|194> Ti>    4.00000000000   -0.00005206359   -2.96109405556   -4.41288206312
|195> NewECP
|196> N_core 0
|197>   lmax f
|198>   s 2
|199>    1      0.860000       9.191690  2
|200>    2      0.172000       0.008301  2
|201>   p 2
|202>    1      0.860000      17.997720  2
|203>    2      0.172000      -0.032600  2
|204>   d 2
|205>    1      1.600000      -9.504310  2
|206>    2      0.320000      -0.151370  2
|207>   f 1
|208>    1      1.000000000    0.000000000 2
|209> end
|210> Ti>    4.00000000000    3.25395215162    1.48054533538   -4.59991327640
|211> NewECP
|212> N_core 0
|213>   lmax f
|214>   s 2
|215>    1      0.860000       9.191690  2
|216>    2      0.172000       0.008301  2
|217>   p 2
|218>    1      0.860000      17.997720  2
|219>    2      0.172000      -0.032600  2
|220>   d 2
|221>    1      1.600000      -9.504310  2
|222>    2      0.320000      -0.151370  2
|223>   f 1
|224>    1      1.000000000    0.000000000 2
|225> end
|226> Ti>    4.00000000000    3.25395195581   -1.48054722422   -4.59991284715
|227> NewECP
|228> N_core 0
|229>   lmax f
|230>   s 2
|231>    1      0.860000       9.191690  2
|232>    2      0.172000       0.008301  2
|233>   p 2
|234>    1      0.860000      17.997720  2
|235>    2      0.172000      -0.032600  2
|236>   d 2
|237>    1      1.600000      -9.504310  2
|238>    2      0.320000      -0.151370  2
|239>   f 1
|240>    1      1.000000000    0.000000000 2
|241> end
|242> Ti>    4.00000000000   -3.25408714585    1.48054533538   -4.59991327640
|243> NewECP
|244> N_core 0
|245>   lmax f
|246>   s 2
|247>    1      0.860000       9.191690  2
|248>    2      0.172000       0.008301  2
|249>   p 2
|250>    1      0.860000      17.997720  2
|251>    2      0.172000      -0.032600  2
|252>   d 2
|253>    1      1.600000      -9.504310  2
|254>    2      0.320000      -0.151370  2
|255>   f 1
|256>    1      1.000000000    0.000000000 2
|257> end
|258> Ti>    4.00000000000   -3.25408734165   -1.48054722422   -4.59991284715
|259> NewECP
|260> N_core 0
|261>   lmax f
|262>   s 2
|263>    1      0.860000       9.191690  2
|264>    2      0.172000       0.008301  2
|265>   p 2
|266>    1      0.860000      17.997720  2
|267>    2      0.172000      -0.032600  2
|268>   d 2
|269>    1      1.600000      -9.504310  2
|270>    2      0.320000      -0.151370  2
|271>   f 1
|272>    1      1.000000000    0.000000000 2
|273> end
|274> Ti>    4.00000000000   -6.50803392749    1.48055149700   -1.06892606631
|275> NewECP
|276> N_core 0
|277>   lmax f
|278>   s 2
|279>    1      0.860000       9.191690  2
|280>    2      0.172000       0.008301  2
|281>   p 2
|282>    1      0.860000      17.997720  2
|283>    2      0.172000      -0.032600  2
|284>   d 2
|285>    1      1.600000      -9.504310  2
|286>    2      0.320000      -0.151370  2
|287>   f 1
|288>    1      1.000000000    0.000000000 2
|289> end
|290> Ti>    4.00000000000    6.50804466744    1.48055149700   -1.06892606631
|291> NewECP
|292> N_core 0
|293>   lmax f
|294>   s 2
|295>    1      0.860000       9.191690  2
|296>    2      0.172000       0.008301  2
|297>   p 2
|298>    1      0.860000      17.997720  2
|299>    2      0.172000      -0.032600  2
|300>   d 2
|301>    1      1.600000      -9.504310  2
|302>    2      0.320000      -0.151370  2
|303>   f 1
|304>    1      1.000000000    0.000000000 2
|305> end
|306> Ti>    4.00000000000    6.50804481848   -1.48055312386   -1.06892138720
|307> NewECP
|308> N_core 0
|309>   lmax f
|310>   s 2
|311>    1      0.860000       9.191690  2
|312>    2      0.172000       0.008301  2
|313>   p 2
|314>    1      0.860000      17.997720  2
|315>    2      0.172000      -0.032600  2
|316>   d 2
|317>    1      1.600000      -9.504310  2
|318>    2      0.320000      -0.151370  2
|319>   f 1
|320>    1      1.000000000    0.000000000 2
|321> end
|322> Ti>    4.00000000000   -6.50803377645   -1.48055312386   -1.06892138720
|323> NewECP
|324> N_core 0
|325>   lmax f
|326>   s 2
|327>    1      0.860000       9.191690  2
|328>    2      0.172000       0.008301  2
|329>   p 2
|330>    1      0.860000      17.997720  2
|331>    2      0.172000      -0.032600  2
|332>   d 2
|333>    1      1.600000      -9.504310  2
|334>    2      0.320000      -0.151370  2
|335>   f 1
|336>    1      1.000000000    0.000000000 2
|337> end
|338> Ti>    4.00000000000   -3.25401610555    5.92218595157   -1.42716202606
|339> NewECP
|340> N_core 0
|341>   lmax f
|342>   s 2
|343>    1      0.860000       9.191690  2
|344>    2      0.172000       0.008301  2
|345>   p 2
|346>    1      0.860000      17.997720  2
|347>    2      0.172000      -0.032600  2
|348>   d 2
|349>    1      1.600000      -9.504310  2
|350>    2      0.320000      -0.151370  2
|351>   f 1
|352>    1      1.000000000    0.000000000 2
|353> end
|354> Ti>    4.00000000000    3.25402319191    5.92218595157   -1.42716202606
|355> NewECP
|356> N_core 0
|357>   lmax f
|358>   s 2
|359>    1      0.860000       9.191690  2
|360>    2      0.172000       0.008301  2
|361>   p 2
|362>    1      0.860000      17.997720  2
|363>    2      0.172000      -0.032600  2
|364>   d 2
|365>    1      1.600000      -9.504310  2
|366>    2      0.320000      -0.151370  2
|367>   f 1
|368>    1      1.000000000    0.000000000 2
|369> end
|370> Ti>    4.00000000000    3.25402319191   -5.92218819228   -1.42716202606
|371> NewECP
|372> N_core 0
|373>   lmax f
|374>   s 2
|375>    1      0.860000       9.191690  2
|376>    2      0.172000       0.008301  2
|377>   p 2
|378>    1      0.860000      17.997720  2
|379>    2      0.172000      -0.032600  2
|380>   d 2
|381>    1      1.600000      -9.504310  2
|382>    2      0.320000      -0.151370  2
|383>   f 1
|384>    1      1.000000000    0.000000000 2
|385> end
|386> Ti>    4.00000000000   -3.25401610555   -5.92218819228   -1.42716202606
|387> NewECP
|388> N_core 0
|389>   lmax f
|390>   s 2
|391>    1      0.860000       9.191690  2
|392>    2      0.172000       0.008301  2
|393>   p 2
|394>    1      0.860000      17.997720  2
|395>    2      0.172000      -0.032600  2
|396>   d 2
|397>    1      1.600000      -9.504310  2
|398>    2      0.320000      -0.151370  2
|399>   f 1
|400>    1      1.000000000    0.000000000 2
|401> end
|402> Ti>    4.00000000000    3.25395195581    4.44163984770   -4.59991284715
|403> NewECP
|404> N_core 0
|405>   lmax f
|406>   s 2
|407>    1      0.860000       9.191690  2
|408>    2      0.172000       0.008301  2
|409>   p 2
|410>    1      0.860000      17.997720  2
|411>    2      0.172000      -0.032600  2
|412>   d 2
|413>    1      1.600000      -9.504310  2
|414>    2      0.320000      -0.151370  2
|415>   f 1
|416>    1      1.000000000    0.000000000 2
|417> end
|418> Ti>    4.00000000000    3.25395215162   -4.44164173655   -4.59991327640
|419> NewECP
|420> N_core 0
|421>   lmax f
|422>   s 2
|423>    1      0.860000       9.191690  2
|424>    2      0.172000       0.008301  2
|425>   p 2
|426>    1      0.860000      17.997720  2
|427>    2      0.172000      -0.032600  2
|428>   d 2
|429>    1      1.600000      -9.504310  2
|430>    2      0.320000      -0.151370  2
|431>   f 1
|432>    1      1.000000000    0.000000000 2
|433> end
|434> Ti>    4.00000000000   -3.25408734165    4.44163984770   -4.59991284715
|435> NewECP
|436> N_core 0
|437>   lmax f
|438>   s 2
|439>    1      0.860000       9.191690  2
|440>    2      0.172000       0.008301  2
|441>   p 2
|442>    1      0.860000      17.997720  2
|443>    2      0.172000      -0.032600  2
|444>   d 2
|445>    1      1.600000      -9.504310  2
|446>    2      0.320000      -0.151370  2
|447>   f 1
|448>    1      1.000000000    0.000000000 2
|449> end
|450> Ti>    4.00000000000   -3.25408714585   -4.44164173655   -4.59991327640
|451> NewECP
|452> N_core 0
|453>   lmax f
|454>   s 2
|455>    1      0.860000       9.191690  2
|456>    2      0.172000       0.008301  2
|457>   p 2
|458>    1      0.860000      17.997720  2
|459>    2      0.172000      -0.032600  2
|460>   d 2
|461>    1      1.600000      -9.504310  2
|462>    2      0.320000      -0.151370  2
|463>   f 1
|464>    1      1.000000000    0.000000000 2
|465> end
|466> Ti>    4.00000000000   -0.00005220374    5.92218636178   -4.41288396045
|467> NewECP
|468> N_core 0
|469>   lmax f
|470>   s 2
|471>    1      0.860000       9.191690  2
|472>    2      0.172000       0.008301  2
|473>   p 2
|474>    1      0.860000      17.997720  2
|475>    2      0.172000      -0.032600  2
|476>   d 2
|477>    1      1.600000      -9.504310  2
|478>    2      0.320000      -0.151370  2
|479>   f 1
|480>    1      1.000000000    0.000000000 2
|481> end
|482> Ti>    4.00000000000   -0.00005220374   -5.92218778207   -4.41288396045
|483> NewECP
|484> N_core 0
|485>   lmax f
|486>   s 2
|487>    1      0.860000       9.191690  2
|488>    2      0.172000       0.008301  2
|489>   p 2
|490>    1      0.860000      17.997720  2
|491>    2      0.172000      -0.032600  2
|492>   d 2
|493>    1      1.600000      -9.504310  2
|494>    2      0.320000      -0.151370  2
|495>   f 1
|496>    1      1.000000000    0.000000000 2
|497> end
|498> Ti>    4.00000000000    0.00000536997    7.40273856892   -1.06892606631
|499> NewECP
|500> N_core 0
|501>   lmax f
|502>   s 2
|503>    1      0.860000       9.191690  2
|504>    2      0.172000       0.008301  2
|505>   p 2
|506>    1      0.860000      17.997720  2
|507>    2      0.172000      -0.032600  2
|508>   d 2
|509>    1      1.600000      -9.504310  2
|510>    2      0.320000      -0.151370  2
|511>   f 1
|512>    1      1.000000000    0.000000000 2
|513> end
|514> Ti>    4.00000000000    0.00000552101   -7.40274019579   -1.06892138720
|515> NewECP
|516> N_core 0
|517>   lmax f
|518>   s 2
|519>    1      0.860000       9.191690  2
|520>    2      0.172000       0.008301  2
|521>   p 2
|522>    1      0.860000      17.997720  2
|523>    2      0.172000      -0.032600  2
|524>   d 2
|525>    1      1.600000      -9.504310  2
|526>    2      0.320000      -0.151370  2
|527>   f 1
|528>    1      1.000000000    0.000000000 2
|529> end
|530> Ti>    4.00000000000    6.50798709372   -0.00000071014   -4.41288396045
|531> NewECP
|532> N_core 0
|533>   lmax f
|534>   s 2
|535>    1      0.860000       9.191690  2
|536>    2      0.172000       0.008301  2
|537>   p 2
|538>    1      0.860000      17.997720  2
|539>    2      0.172000      -0.032600  2
|540>   d 2
|541>    1      1.600000      -9.504310  2
|542>    2      0.320000      -0.151370  2
|543>   f 1
|544>    1      1.000000000    0.000000000 2
|545> end
|546> Ti>    4.00000000000   -6.50809150121   -0.00000071014   -4.41288396045
|547> NewECP
|548> N_core 0
|549>   lmax f
|550>   s 2
|551>    1      0.860000       9.191690  2
|552>    2      0.172000       0.008301  2
|553>   p 2
|554>    1      0.860000      17.997720  2
|555>    2      0.172000      -0.032600  2
|556>   d 2
|557>    1      1.600000      -9.504310  2
|558>    2      0.320000      -0.151370  2
|559>   f 1
|560>    1      1.000000000    0.000000000 2
|561> end
|562> Ti>    4.00000000000   -0.00000306899    1.48054576566   -7.78540932970
|563> NewECP
|564> N_core 0
|565>   lmax f
|566>   s 2
|567>    1      0.860000       9.191690  2
|568>    2      0.172000       0.008301  2
|569>   p 2
|570>    1      0.860000      17.997720  2
|571>    2      0.172000      -0.032600  2
|572>   d 2
|573>    1      1.600000      -9.504310  2
|574>    2      0.320000      -0.151370  2
|575>   f 1
|576>    1      1.000000000    0.000000000 2
|577> end
|578> Ti>    4.00000000000   -0.00000306899   -1.48054777030   -7.78540932970
|579> NewECP
|580> N_core 0
|581>   lmax f
|582>   s 2
|583>    1      0.860000       9.191690  2
|584>    2      0.172000       0.008301  2
|585>   p 2
|586>    1      0.860000      17.997720  2
|587>    2      0.172000      -0.032600  2
|588>   d 2
|589>    1      1.600000      -9.504310  2
|590>    2      0.320000      -0.151370  2
|591>   f 1
|592>    1      1.000000000    0.000000000 2
|593> end
|594> Ti>    4.00000000000   -6.50803377645    4.44163394806   -1.06892138720
|595> NewECP
|596> N_core 0
|597>   lmax f
|598>   s 2
|599>    1      0.860000       9.191690  2
|600>    2      0.172000       0.008301  2
|601>   p 2
|602>    1      0.860000      17.997720  2
|603>    2      0.172000      -0.032600  2
|604>   d 2
|605>    1      1.600000      -9.504310  2
|606>    2      0.320000      -0.151370  2
|607>   f 1
|608>    1      1.000000000    0.000000000 2
|609> end
|610> Ti>    4.00000000000    6.50804481848    4.44163394806   -1.06892138720
|611> NewECP
|612> N_core 0
|613>   lmax f
|614>   s 2
|615>    1      0.860000       9.191690  2
|616>    2      0.172000       0.008301  2
|617>   p 2
|618>    1      0.860000      17.997720  2
|619>    2      0.172000      -0.032600  2
|620>   d 2
|621>    1      1.600000      -9.504310  2
|622>    2      0.320000      -0.151370  2
|623>   f 1
|624>    1      1.000000000    0.000000000 2
|625> end
|626> Ti>    4.00000000000    6.50804466744   -4.44163557493   -1.06892606631
|627> NewECP
|628> N_core 0
|629>   lmax f
|630>   s 2
|631>    1      0.860000       9.191690  2
|632>    2      0.172000       0.008301  2
|633>   p 2
|634>    1      0.860000      17.997720  2
|635>    2      0.172000      -0.032600  2
|636>   d 2
|637>    1      1.600000      -9.504310  2
|638>    2      0.320000      -0.151370  2
|639>   f 1
|640>    1      1.000000000    0.000000000 2
|641> end
|642> Ti>    4.00000000000   -6.50803392749   -4.44163557493   -1.06892606631
|643> NewECP
|644> N_core 0
|645>   lmax f
|646>   s 2
|647>    1      0.860000       9.191690  2
|648>    2      0.172000       0.008301  2
|649>   p 2
|650>    1      0.860000      17.997720  2
|651>    2      0.172000      -0.032600  2
|652>   d 2
|653>    1      1.600000      -9.504310  2
|654>    2      0.320000      -0.151370  2
|655>   f 1
|656>    1      1.000000000    0.000000000 2
|657> end
|658> Ti>    4.00000000000    6.50798723387    2.96109301637   -4.41288206312
|659> NewECP
|660> N_core 0
|661>   lmax f
|662>   s 2
|663>    1      0.860000       9.191690  2
|664>    2      0.172000       0.008301  2
|665>   p 2
|666>    1      0.860000      17.997720  2
|667>    2      0.172000      -0.032600  2
|668>   d 2
|669>    1      1.600000      -9.504310  2
|670>    2      0.320000      -0.151370  2
|671>   f 1
|672>    1      1.000000000    0.000000000 2
|673> end
|674> Ti>    4.00000000000    6.50798723387   -2.96109405556   -4.41288206312
|675> NewECP
|676> N_core 0
|677>   lmax f
|678>   s 2
|679>    1      0.860000       9.191690  2
|680>    2      0.172000       0.008301  2
|681>   p 2
|682>    1      0.860000      17.997720  2
|683>    2      0.172000      -0.032600  2
|684>   d 2
|685>    1      1.600000      -9.504310  2
|686>    2      0.320000      -0.151370  2
|687>   f 1
|688>    1      1.000000000    0.000000000 2
|689> end
|690> Ti>    4.00000000000   -6.50809136106    2.96109301637   -4.41288206312
|691> NewECP
|692> N_core 0
|693>   lmax f
|694>   s 2
|695>    1      0.860000       9.191690  2
|696>    2      0.172000       0.008301  2
|697>   p 2
|698>    1      0.860000      17.997720  2
|699>    2      0.172000      -0.032600  2
|700>   d 2
|701>    1      1.600000      -9.504310  2
|702>    2      0.320000      -0.151370  2
|703>   f 1
|704>    1      1.000000000    0.000000000 2
|705> end
|706> Ti>    4.00000000000   -6.50809136106   -2.96109405556   -4.41288206312
|707> NewECP
|708> N_core 0
|709>   lmax f
|710>   s 2
|711>    1      0.860000       9.191690  2
|712>    2      0.172000       0.008301  2
|713>   p 2
|714>    1      0.860000      17.997720  2
|715>    2      0.172000      -0.032600  2
|716>   d 2
|717>    1      1.600000      -9.504310  2
|718>    2      0.320000      -0.151370  2
|719>   f 1
|720>    1      1.000000000    0.000000000 2
|721> end
|722> Ti>    4.00000000000    3.25401657974   -0.00000100232   -7.78540932970
|723> NewECP
|724> N_core 0
|725>   lmax f
|726>   s 2
|727>    1      0.860000       9.191690  2
|728>    2      0.172000       0.008301  2
|729>   p 2
|730>    1      0.860000      17.997720  2
|731>    2      0.172000      -0.032600  2
|732>   d 2
|733>    1      1.600000      -9.504310  2
|734>    2      0.320000      -0.151370  2
|735>   f 1
|736>    1      1.000000000    0.000000000 2
|737> end
|738> Ti>    4.00000000000   -3.25402271772   -0.00000100232   -7.78540932970
|739> NewECP
|740> N_core 0
|741>   lmax f
|742>   s 2
|743>    1      0.860000       9.191690  2
|744>    2      0.172000       0.008301  2
|745>   p 2
|746>    1      0.860000      17.997720  2
|747>    2      0.172000      -0.032600  2
|748>   d 2
|749>    1      1.600000      -9.504310  2
|750>    2      0.320000      -0.151370  2
|751>   f 1
|752>    1      1.000000000    0.000000000 2
|753> end
|754> Ti>    4.00000000000   -3.25402271772    2.96109253364   -7.78540932970
|755> NewECP
|756> N_core 0
|757>   lmax f
|758>   s 2
|759>    1      0.860000       9.191690  2
|760>    2      0.172000       0.008301  2
|761>   p 2
|762>    1      0.860000      17.997720  2
|763>    2      0.172000      -0.032600  2
|764>   d 2
|765>    1      1.600000      -9.504310  2
|766>    2      0.320000      -0.151370  2
|767>   f 1
|768>    1      1.000000000    0.000000000 2
|769> end
|770> Ti>    4.00000000000    3.25401657974    2.96109253364   -7.78540932970
|771> NewECP
|772> N_core 0
|773>   lmax f
|774>   s 2
|775>    1      0.860000       9.191690  2
|776>    2      0.172000       0.008301  2
|777>   p 2
|778>    1      0.860000      17.997720  2
|779>    2      0.172000      -0.032600  2
|780>   d 2
|781>    1      1.600000      -9.504310  2
|782>    2      0.320000      -0.151370  2
|783>   f 1
|784>    1      1.000000000    0.000000000 2
|785> end
|786> Ti>    4.00000000000    3.25401657974   -2.96109453828   -7.78540932970
|787> NewECP
|788> N_core 0
|789>   lmax f
|790>   s 2
|791>    1      0.860000       9.191690  2
|792>    2      0.172000       0.008301  2
|793>   p 2
|794>    1      0.860000      17.997720  2
|795>    2      0.172000      -0.032600  2
|796>   d 2
|797>    1      1.600000      -9.504310  2
|798>    2      0.320000      -0.151370  2
|799>   f 1
|800>    1      1.000000000    0.000000000 2
|801> end
|802> Ti>    4.00000000000   -3.25402271772   -2.96109453828   -7.78540932970
|803> NewECP
|804> N_core 0
|805>   lmax f
|806>   s 2
|807>    1      0.860000       9.191690  2
|808>    2      0.172000       0.008301  2
|809>   p 2
|810>    1      0.860000      17.997720  2
|811>    2      0.172000      -0.032600  2
|812>   d 2
|813>    1      1.600000      -9.504310  2
|814>    2      0.320000      -0.151370  2
|815>   f 1
|816>    1      1.000000000    0.000000000 2
|817> end
|818> Ti>    4.00000000000   -0.00000306899    4.44163930162   -7.78540932970
|819> NewECP
|820> N_core 0
|821>   lmax f
|822>   s 2
|823>    1      0.860000       9.191690  2
|824>    2      0.172000       0.008301  2
|825>   p 2
|826>    1      0.860000      17.997720  2
|827>    2      0.172000      -0.032600  2
|828>   d 2
|829>    1      1.600000      -9.504310  2
|830>    2      0.320000      -0.151370  2
|831>   f 1
|832>    1      1.000000000    0.000000000 2
|833> end
|834> Ti>    4.00000000000   -0.00000306899   -4.44164130627   -7.78540932970
|835> NewECP
|836> N_core 0
|837>   lmax f
|838>   s 2
|839>    1      0.860000       9.191690  2
|840>    2      0.172000       0.008301  2
|841>   p 2
|842>    1      0.860000      17.997720  2
|843>    2      0.172000      -0.032600  2
|844>   d 2
|845>    1      1.600000      -9.504310  2
|846>    2      0.320000      -0.151370  2
|847>   f 1
|848>    1      1.000000000    0.000000000 2
|849> end
|850> Ti>    4.00000000000   -3.25408714585    7.40273240730   -4.59991327640
|851> NewECP
|852> N_core 0
|853>   lmax f
|854>   s 2
|855>    1      0.860000       9.191690  2
|856>    2      0.172000       0.008301  2
|857>   p 2
|858>    1      0.860000      17.997720  2
|859>    2      0.172000      -0.032600  2
|860>   d 2
|861>    1      1.600000      -9.504310  2
|862>    2      0.320000      -0.151370  2
|863>   f 1
|864>    1      1.000000000    0.000000000 2
|865> end
|866> Ti>    4.00000000000    3.25395215162    7.40273240730   -4.59991327640
|867> NewECP
|868> N_core 0
|869>   lmax f
|870>   s 2
|871>    1      0.860000       9.191690  2
|872>    2      0.172000       0.008301  2
|873>   p 2
|874>    1      0.860000      17.997720  2
|875>    2      0.172000      -0.032600  2
|876>   d 2
|877>    1      1.600000      -9.504310  2
|878>    2      0.320000      -0.151370  2
|879>   f 1
|880>    1      1.000000000    0.000000000 2
|881> end
|882> Ti>    4.00000000000    3.25395195581   -7.40273429615   -4.59991284715
|883> NewECP
|884> N_core 0
|885>   lmax f
|886>   s 2
|887>    1      0.860000       9.191690  2
|888>    2      0.172000       0.008301  2
|889>   p 2
|890>    1      0.860000      17.997720  2
|891>    2      0.172000      -0.032600  2
|892>   d 2
|893>    1      1.600000      -9.504310  2
|894>    2      0.320000      -0.151370  2
|895>   f 1
|896>    1      1.000000000    0.000000000 2
|897> end
|898> Ti>    4.00000000000   -3.25408734165   -7.40273429615   -4.59991284715
|899> NewECP
|900> N_core 0
|901>   lmax f
|902>   s 2
|903>    1      0.860000       9.191690  2
|904>    2      0.172000       0.008301  2
|905>   p 2
|906>    1      0.860000      17.997720  2
|907>    2      0.172000      -0.032600  2
|908>   d 2
|909>    1      1.600000      -9.504310  2
|910>    2      0.320000      -0.151370  2
|911>   f 1
|912>    1      1.000000000    0.000000000 2
|913> end
|914> Ti>    4.00000000000   -3.25401668289    8.88328009748   -1.42716235830
|915> NewECP
|916> N_core 0
|917>   lmax f
|918>   s 2
|919>    1      0.860000       9.191690  2
|920>    2      0.172000       0.008301  2
|921>   p 2
|922>    1      0.860000      17.997720  2
|923>    2      0.172000      -0.032600  2
|924>   d 2
|925>    1      1.600000      -9.504310  2
|926>    2      0.320000      -0.151370  2
|927>   f 1
|928>    1      1.000000000    0.000000000 2
|929> end
|930> Ti>    4.00000000000    3.25402261457    8.88328009748   -1.42716235830
|931> NewECP
|932> N_core 0
|933>   lmax f
|934>   s 2
|935>    1      0.860000       9.191690  2
|936>    2      0.172000       0.008301  2
|937>   p 2
|938>    1      0.860000      17.997720  2
|939>    2      0.172000      -0.032600  2
|940>   d 2
|941>    1      1.600000      -9.504310  2
|942>    2      0.320000      -0.151370  2
|943>   f 1
|944>    1      1.000000000    0.000000000 2
|945> end
|946> Ti>    4.00000000000    3.25402261457   -8.88328111830   -1.42716235830
|947> NewECP
|948> N_core 0
|949>   lmax f
|950>   s 2
|951>    1      0.860000       9.191690  2
|952>    2      0.172000       0.008301  2
|953>   p 2
|954>    1      0.860000      17.997720  2
|955>    2      0.172000      -0.032600  2
|956>   d 2
|957>    1      1.600000      -9.504310  2
|958>    2      0.320000      -0.151370  2
|959>   f 1
|960>    1      1.000000000    0.000000000 2
|961> end
|962> Ti>    4.00000000000   -3.25401668289   -8.88328111830   -1.42716235830
|963> NewECP
|964> N_core 0
|965>   lmax f
|966>   s 2
|967>    1      0.860000       9.191690  2
|968>    2      0.172000       0.008301  2
|969>   p 2
|970>    1      0.860000      17.997720  2
|971>    2      0.172000      -0.032600  2
|972>   d 2
|973>    1      1.600000      -9.504310  2
|974>    2      0.320000      -0.151370  2
|975>   f 1
|976>    1      1.000000000    0.000000000 2
|977> end
|978> Ti>    4.00000000000    6.50798709372    5.92218636178   -4.41288396045
|979> NewECP
|980> N_core 0
|981>   lmax f
|982>   s 2
|983>    1      0.860000       9.191690  2
|984>    2      0.172000       0.008301  2
|985>   p 2
|986>    1      0.860000      17.997720  2
|987>    2      0.172000      -0.032600  2
|988>   d 2
|989>    1      1.600000      -9.504310  2
|990>    2      0.320000      -0.151370  2
|991>   f 1
|992>    1      1.000000000    0.000000000 2
|993> end
|994> Ti>    4.00000000000    6.50798709372   -5.92218778207   -4.41288396045
|995> NewECP
|996> N_core 0
|997>   lmax f
|998>   s 2
|999>    1      0.860000       9.191690  2
|1000>    2      0.172000       0.008301  2
|1001>   p 2
|1002>    1      0.860000      17.997720  2
|1003>    2      0.172000      -0.032600  2
|1004>   d 2
|1005>    1      1.600000      -9.504310  2
|1006>    2      0.320000      -0.151370  2
|1007>   f 1
|1008>    1      1.000000000    0.000000000 2
|1009> end
|1010> Ti>    4.00000000000   -6.50809150121    5.92218636178   -4.41288396045
|1011> NewECP
|1012> N_core 0
|1013>   lmax f
|1014>   s 2
|1015>    1      0.860000       9.191690  2
|1016>    2      0.172000       0.008301  2
|1017>   p 2
|1018>    1      0.860000      17.997720  2
|1019>    2      0.172000      -0.032600  2
|1020>   d 2
|1021>    1      1.600000      -9.504310  2
|1022>    2      0.320000      -0.151370  2
|1023>   f 1
|1024>    1      1.000000000    0.000000000 2
|1025> end
|1026> Ti>    4.00000000000   -6.50809150121   -5.92218778207   -4.41288396045
|1027> NewECP
|1028> N_core 0
|1029>   lmax f
|1030>   s 2
|1031>    1      0.860000       9.191690  2
|1032>    2      0.172000       0.008301  2
|1033>   p 2
|1034>    1      0.860000      17.997720  2
|1035>    2      0.172000      -0.032600  2
|1036>   d 2
|1037>    1      1.600000      -9.504310  2
|1038>    2      0.320000      -0.151370  2
|1039>   f 1
|1040>    1      1.000000000    0.000000000 2
|1041> end
|1042> Ti>    4.00000000000   -0.00005206359    8.88328008829   -4.41288206312
|1043> NewECP
|1044> N_core 0
|1045>   lmax f
|1046>   s 2
|1047>    1      0.860000       9.191690  2
|1048>    2      0.172000       0.008301  2
|1049>   p 2
|1050>    1      0.860000      17.997720  2
|1051>    2      0.172000      -0.032600  2
|1052>   d 2
|1053>    1      1.600000      -9.504310  2
|1054>    2      0.320000      -0.151370  2
|1055>   f 1
|1056>    1      1.000000000    0.000000000 2
|1057> end
|1058> Ti>    4.00000000000   -0.00005206359   -8.88328112748   -4.41288206312
|1059> NewECP
|1060> N_core 0
|1061>   lmax f
|1062>   s 2
|1063>    1      0.860000       9.191690  2
|1064>    2      0.172000       0.008301  2
|1065>   p 2
|1066>    1      0.860000      17.997720  2
|1067>    2      0.172000      -0.032600  2
|1068>   d 2
|1069>    1      1.600000      -9.504310  2
|1070>    2      0.320000      -0.151370  2
|1071>   f 1
|1072>    1      1.000000000    0.000000000 2
|1073> end
|1074> Ti>    4.00000000000   -6.50804236645    1.48054576566   -7.78540932970
|1075> NewECP
|1076> N_core 0
|1077>   lmax f
|1078>   s 2
|1079>    1      0.860000       9.191690  2
|1080>    2      0.172000       0.008301  2
|1081>   p 2
|1082>    1      0.860000      17.997720  2
|1083>    2      0.172000      -0.032600  2
|1084>   d 2
|1085>    1      1.600000      -9.504310  2
|1086>    2      0.320000      -0.151370  2
|1087>   f 1
|1088>    1      1.000000000    0.000000000 2
|1089> end
|1090> Ti>    4.00000000000    6.50803622848    1.48054576566   -7.78540932970
|1091> NewECP
|1092> N_core 0
|1093>   lmax f
|1094>   s 2
|1095>    1      0.860000       9.191690  2
|1096>    2      0.172000       0.008301  2
|1097>   p 2
|1098>    1      0.860000      17.997720  2
|1099>    2      0.172000      -0.032600  2
|1100>   d 2
|1101>    1      1.600000      -9.504310  2
|1102>    2      0.320000      -0.151370  2
|1103>   f 1
|1104>    1      1.000000000    0.000000000 2
|1105> end
|1106> Ti>    4.00000000000    6.50803622848   -1.48054777030   -7.78540932970
|1107> NewECP
|1108> N_core 0
|1109>   lmax f
|1110>   s 2
|1111>    1      0.860000       9.191690  2
|1112>    2      0.172000       0.008301  2
|1113>   p 2
|1114>    1      0.860000      17.997720  2
|1115>    2      0.172000      -0.032600  2
|1116>   d 2
|1117>    1      1.600000      -9.504310  2
|1118>    2      0.320000      -0.151370  2
|1119>   f 1
|1120>    1      1.000000000    0.000000000 2
|1121> end
|1122> Ti>    4.00000000000   -6.50804236645   -1.48054777030   -7.78540932970
|1123> NewECP
|1124> N_core 0
|1125>   lmax f
|1126>   s 2
|1127>    1      0.860000       9.191690  2
|1128>    2      0.172000       0.008301  2
|1129>   p 2
|1130>    1      0.860000      17.997720  2
|1131>    2      0.172000      -0.032600  2
|1132>   d 2
|1133>    1      1.600000      -9.504310  2
|1134>    2      0.320000      -0.151370  2
|1135>   f 1
|1136>    1      1.000000000    0.000000000 2
|1137> end
|1138> Ti>    4.00000000000   -3.25402271772    5.92218606960   -7.78540932970
|1139> NewECP
|1140> N_core 0
|1141>   lmax f
|1142>   s 2
|1143>    1      0.860000       9.191690  2
|1144>    2      0.172000       0.008301  2
|1145>   p 2
|1146>    1      0.860000      17.997720  2
|1147>    2      0.172000      -0.032600  2
|1148>   d 2
|1149>    1      1.600000      -9.504310  2
|1150>    2      0.320000      -0.151370  2
|1151>   f 1
|1152>    1      1.000000000    0.000000000 2
|1153> end
|1154> Ti>    4.00000000000    3.25401657974    5.92218606960   -7.78540932970
|1155> NewECP
|1156> N_core 0
|1157>   lmax f
|1158>   s 2
|1159>    1      0.860000       9.191690  2
|1160>    2      0.172000       0.008301  2
|1161>   p 2
|1162>    1      0.860000      17.997720  2
|1163>    2      0.172000      -0.032600  2
|1164>   d 2
|1165>    1      1.600000      -9.504310  2
|1166>    2      0.320000      -0.151370  2
|1167>   f 1
|1168>    1      1.000000000    0.000000000 2
|1169> end
|1170> Ti>    4.00000000000    3.25401657974   -5.92218807425   -7.78540932970
|1171> NewECP
|1172> N_core 0
|1173>   lmax f
|1174>   s 2
|1175>    1      0.860000       9.191690  2
|1176>    2      0.172000       0.008301  2
|1177>   p 2
|1178>    1      0.860000      17.997720  2
|1179>    2      0.172000      -0.032600  2
|1180>   d 2
|1181>    1      1.600000      -9.504310  2
|1182>    2      0.320000      -0.151370  2
|1183>   f 1
|1184>    1      1.000000000    0.000000000 2
|1185> end
|1186> Ti>    4.00000000000   -3.25402271772   -5.92218807425   -7.78540932970
|1187> NewECP
|1188> N_core 0
|1189>   lmax f
|1190>   s 2
|1191>    1      0.860000       9.191690  2
|1192>    2      0.172000       0.008301  2
|1193>   p 2
|1194>    1      0.860000      17.997720  2
|1195>    2      0.172000      -0.032600  2
|1196>   d 2
|1197>    1      1.600000      -9.504310  2
|1198>    2      0.320000      -0.151370  2
|1199>   f 1
|1200>    1      1.000000000    0.000000000 2
|1201> end
|1202> Ti>    4.00000000000   -0.00000306899    7.40273283758   -7.78540932970
|1203> NewECP
|1204> N_core 0
|1205>   lmax f
|1206>   s 2
|1207>    1      0.860000       9.191690  2
|1208>    2      0.172000       0.008301  2
|1209>   p 2
|1210>    1      0.860000      17.997720  2
|1211>    2      0.172000      -0.032600  2
|1212>   d 2
|1213>    1      1.600000      -9.504310  2
|1214>    2      0.320000      -0.151370  2
|1215>   f 1
|1216>    1      1.000000000    0.000000000 2
|1217> end
|1218> Ti>    4.00000000000   -0.00000306899   -7.40273484223   -7.78540932970
|1219> NewECP
|1220> N_core 0
|1221>   lmax f
|1222>   s 2
|1223>    1      0.860000       9.191690  2
|1224>    2      0.172000       0.008301  2
|1225>   p 2
|1226>    1      0.860000      17.997720  2
|1227>    2      0.172000      -0.032600  2
|1228>   d 2
|1229>    1      1.600000      -9.504310  2
|1230>    2      0.320000      -0.151370  2
|1231>   f 1
|1232>    1      1.000000000    0.000000000 2
|1233> end
|1234> Ti>    4.00000000000   -0.00000306899   -0.00000100232  -11.03942897843
|1235> NewECP
|1236> N_core 0
|1237>   lmax f
|1238>   s 2
|1239>    1      0.860000       9.191690  2
|1240>    2      0.172000       0.008301  2
|1241>   p 2
|1242>    1      0.860000      17.997720  2
|1243>    2      0.172000      -0.032600  2
|1244>   d 2
|1245>    1      1.600000      -9.504310  2
|1246>    2      0.320000      -0.151370  2
|1247>   f 1
|1248>    1      1.000000000    0.000000000 2
|1249> end
|1250> Ti>    4.00000000000   -6.50804236645    4.44163930162   -7.78540932970
|1251> NewECP
|1252> N_core 0
|1253>   lmax f
|1254>   s 2
|1255>    1      0.860000       9.191690  2
|1256>    2      0.172000       0.008301  2
|1257>   p 2
|1258>    1      0.860000      17.997720  2
|1259>    2      0.172000      -0.032600  2
|1260>   d 2
|1261>    1      1.600000      -9.504310  2
|1262>    2      0.320000      -0.151370  2
|1263>   f 1
|1264>    1      1.000000000    0.000000000 2
|1265> end
|1266> Ti>    4.00000000000    6.50803622848    4.44163930162   -7.78540932970
|1267> NewECP
|1268> N_core 0
|1269>   lmax f
|1270>   s 2
|1271>    1      0.860000       9.191690  2
|1272>    2      0.172000       0.008301  2
|1273>   p 2
|1274>    1      0.860000      17.997720  2
|1275>    2      0.172000      -0.032600  2
|1276>   d 2
|1277>    1      1.600000      -9.504310  2
|1278>    2      0.320000      -0.151370  2
|1279>   f 1
|1280>    1      1.000000000    0.000000000 2
|1281> end
|1282> Ti>    4.00000000000    6.50803622848   -4.44164130627   -7.78540932970
|1283> NewECP
|1284> N_core 0
|1285>   lmax f
|1286>   s 2
|1287>    1      0.860000       9.191690  2
|1288>    2      0.172000       0.008301  2
|1289>   p 2
|1290>    1      0.860000      17.997720  2
|1291>    2      0.172000      -0.032600  2
|1292>   d 2
|1293>    1      1.600000      -9.504310  2
|1294>    2      0.320000      -0.151370  2
|1295>   f 1
|1296>    1      1.000000000    0.000000000 2
|1297> end
|1298> Ti>    4.00000000000   -6.50804236645   -4.44164130627   -7.78540932970
|1299> NewECP
|1300> N_core 0
|1301>   lmax f
|1302>   s 2
|1303>    1      0.860000       9.191690  2
|1304>    2      0.172000       0.008301  2
|1305>   p 2
|1306>    1      0.860000      17.997720  2
|1307>    2      0.172000      -0.032600  2
|1308>   d 2
|1309>    1      1.600000      -9.504310  2
|1310>    2      0.320000      -0.151370  2
|1311>   f 1
|1312>    1      1.000000000    0.000000000 2
|1313> end
|1314> Ti>    4.00000000000   -0.00000306899    2.96109253364  -11.03942897843
|1315> NewECP
|1316> N_core 0
|1317>   lmax f
|1318>   s 2
|1319>    1      0.860000       9.191690  2
|1320>    2      0.172000       0.008301  2
|1321>   p 2
|1322>    1      0.860000      17.997720  2
|1323>    2      0.172000      -0.032600  2
|1324>   d 2
|1325>    1      1.600000      -9.504310  2
|1326>    2      0.320000      -0.151370  2
|1327>   f 1
|1328>    1      1.000000000    0.000000000 2
|1329> end
|1330> Ti>    4.00000000000   -0.00000306899   -2.96109453828  -11.03942897843
|1331> NewECP
|1332> N_core 0
|1333>   lmax f
|1334>   s 2
|1335>    1      0.860000       9.191690  2
|1336>    2      0.172000       0.008301  2
|1337>   p 2
|1338>    1      0.860000      17.997720  2
|1339>    2      0.172000      -0.032600  2
|1340>   d 2
|1341>    1      1.600000      -9.504310  2
|1342>    2      0.320000      -0.151370  2
|1343>   f 1
|1344>    1      1.000000000    0.000000000 2
|1345> end
|1346> Ti>    4.00000000000   -3.25402271772    1.48054576566  -11.03942897843
|1347> NewECP
|1348> N_core 0
|1349>   lmax f
|1350>   s 2
|1351>    1      0.860000       9.191690  2
|1352>    2      0.172000       0.008301  2
|1353>   p 2
|1354>    1      0.860000      17.997720  2
|1355>    2      0.172000      -0.032600  2
|1356>   d 2
|1357>    1      1.600000      -9.504310  2
|1358>    2      0.320000      -0.151370  2
|1359>   f 1
|1360>    1      1.000000000    0.000000000 2
|1361> end
|1362> Ti>    4.00000000000    3.25401657974    1.48054576566  -11.03942897843
|1363> NewECP
|1364> N_core 0
|1365>   lmax f
|1366>   s 2
|1367>    1      0.860000       9.191690  2
|1368>    2      0.172000       0.008301  2
|1369>   p 2
|1370>    1      0.860000      17.997720  2
|1371>    2      0.172000      -0.032600  2
|1372>   d 2
|1373>    1      1.600000      -9.504310  2
|1374>    2      0.320000      -0.151370  2
|1375>   f 1
|1376>    1      1.000000000    0.000000000 2
|1377> end
|1378> Ti>    4.00000000000    3.25401657974   -1.48054777030  -11.03942897843
|1379> NewECP
|1380> N_core 0
|1381>   lmax f
|1382>   s 2
|1383>    1      0.860000       9.191690  2
|1384>    2      0.172000       0.008301  2
|1385>   p 2
|1386>    1      0.860000      17.997720  2
|1387>    2      0.172000      -0.032600  2
|1388>   d 2
|1389>    1      1.600000      -9.504310  2
|1390>    2      0.320000      -0.151370  2
|1391>   f 1
|1392>    1      1.000000000    0.000000000 2
|1393> end
|1394> Ti>    4.00000000000   -3.25402271772   -1.48054777030  -11.03942897843
|1395> NewECP
|1396> N_core 0
|1397>   lmax f
|1398>   s 2
|1399>    1      0.860000       9.191690  2
|1400>    2      0.172000       0.008301  2
|1401>   p 2
|1402>    1      0.860000      17.997720  2
|1403>    2      0.172000      -0.032600  2
|1404>   d 2
|1405>    1      1.600000      -9.504310  2
|1406>    2      0.320000      -0.151370  2
|1407>   f 1
|1408>    1      1.000000000    0.000000000 2
|1409> end
|1410>   end
|1411> endd                         ****END OF INPUT****
================================================================================

                       ****************************
                       * Single Point Calculation *
                       ****************************

---------------------------------
CARTESIAN COORDINATES (ANGSTROEM)
---------------------------------
  O      0.000000    0.000000    0.000000
  Ti     0.000005    1.480551   -1.068926
  Ti     0.000006   -1.480553   -1.068921
  O      0.000004   -0.000001   -2.548403
  O     -2.035259    1.480545   -1.111494
  O      2.035265    1.480545   -1.111492
  O      2.035265   -1.480547   -1.111493
  O     -2.035259   -1.480547   -1.111495
  O     -0.000000    2.961092   -0.000003
  O     -0.000000   -2.961096   -0.000003
  O      0.000004    2.961092   -2.548404
  O      0.000004   -2.961095   -2.548404
  Ti    -0.000052   -0.000001   -4.412884
  O     -1.301068    1.480546   -4.516450
  O      1.301091    1.480546   -4.516455
  O      1.301091   -1.480548   -4.516455
  O     -1.301068   -1.480548   -4.516449
  O     -0.000003   -0.000001   -6.513318
  Ti>    3.254023   -0.000001   -1.427162
  Ti>   -3.254016   -0.000001   -1.427162
  Ti>    0.000006    4.441634   -1.068921
  Ti>    0.000005   -4.441636   -1.068926
  Ti>   -3.254017    2.961093   -1.427162
  Ti>    3.254023    2.961093   -1.427162
  Ti>    3.254023   -2.961094   -1.427162
  Ti>   -3.254017   -2.961094   -1.427162
  Ti>   -0.000052    2.961093   -4.412882
  Ti>   -0.000052   -2.961094   -4.412882
  Ti>    3.253952    1.480545   -4.599913
  Ti>    3.253952   -1.480547   -4.599913
  Ti>   -3.254087    1.480545   -4.599913
  Ti>   -3.254087   -1.480547   -4.599913
  Ti>   -6.508034    1.480551   -1.068926
  Ti>    6.508045    1.480551   -1.068926
  Ti>    6.508045   -1.480553   -1.068921
  Ti>   -6.508034   -1.480553   -1.068921
  Ti>   -3.254016    5.922186   -1.427162
  Ti>    3.254023    5.922186   -1.427162
  Ti>    3.254023   -5.922188   -1.427162
  Ti>   -3.254016   -5.922188   -1.427162
  Ti>    3.253952    4.441640   -4.599913
  Ti>    3.253952   -4.441642   -4.599913
  Ti>   -3.254087    4.441640   -4.599913
  Ti>   -3.254087   -4.441642   -4.599913
  Ti>   -0.000052    5.922186   -4.412884
  Ti>   -0.000052   -5.922188   -4.412884
  Ti>    0.000005    7.402739   -1.068926
  Ti>    0.000006   -7.402740   -1.068921
  Ti>    6.507987   -0.000001   -4.412884
  Ti>   -6.508092   -0.000001   -4.412884
  Ti>   -0.000003    1.480546   -7.785409
  Ti>   -0.000003   -1.480548   -7.785409
  Ti>   -6.508034    4.441634   -1.068921
  Ti>    6.508045    4.441634   -1.068921
  Ti>    6.508045   -4.441636   -1.068926
  Ti>   -6.508034   -4.441636   -1.068926
  Ti>    6.507987    2.961093   -4.412882
  Ti>    6.507987   -2.961094   -4.412882
  Ti>   -6.508091    2.961093   -4.412882
  Ti>   -6.508091   -2.961094   -4.412882
  Ti>    3.254017   -0.000001   -7.785409
  Ti>   -3.254023   -0.000001   -7.785409
  Ti>   -3.254023    2.961093   -7.785409
  Ti>    3.254017    2.961093   -7.785409
  Ti>    3.254017   -2.961095   -7.785409
  Ti>   -3.254023   -2.961095   -7.785409
  Ti>   -0.000003    4.441639   -7.785409
  Ti>   -0.000003   -4.441641   -7.785409
  Ti>   -3.254087    7.402732   -4.599913
  Ti>    3.253952    7.402732   -4.599913
  Ti>    3.253952   -7.402734   -4.599913
  Ti>   -3.254087   -7.402734   -4.599913
  Ti>   -3.254017    8.883280   -1.427162
  Ti>    3.254023    8.883280   -1.427162
  Ti>    3.254023   -8.883281   -1.427162
  Ti>   -3.254017   -8.883281   -1.427162
  Ti>    6.507987    5.922186   -4.412884
  Ti>    6.507987   -5.922188   -4.412884
  Ti>   -6.508092    5.922186   -4.412884
  Ti>   -6.508092   -5.922188   -4.412884
  Ti>   -0.000052    8.883280   -4.412882
  Ti>   -0.000052   -8.883281   -4.412882
  Ti>   -6.508042    1.480546   -7.785409
  Ti>    6.508036    1.480546   -7.785409
  Ti>    6.508036   -1.480548   -7.785409
  Ti>   -6.508042   -1.480548   -7.785409
  Ti>   -3.254023    5.922186   -7.785409
  Ti>    3.254017    5.922186   -7.785409
  Ti>    3.254017   -5.922188   -7.785409
  Ti>   -3.254023   -5.922188   -7.785409
  Ti>   -0.000003    7.402733   -7.785409
  Ti>   -0.000003   -7.402735   -7.785409
  Ti>   -0.000003   -0.000001  -11.039429
  Ti>   -6.508042    4.441639   -7.785409
  Ti>    6.508036    4.441639   -7.785409
  Ti>    6.508036   -4.441641   -7.785409
  Ti>   -6.508042   -4.441641   -7.785409
  Ti>   -0.000003    2.961093  -11.039429
  Ti>   -0.000003   -2.961095  -11.039429
  Ti>   -3.254023    1.480546  -11.039429
  Ti>    3.254017    1.480546  -11.039429
  Ti>    3.254017   -1.480548  -11.039429
  Ti>   -3.254023   -1.480548  -11.039429

----------------------------
CARTESIAN COORDINATES (A.U.)
----------------------------
  NO LB      ZA    FRAG     MASS         X           Y           Z
   0 O     0.0000    0     0.000    0.000000    0.000000    0.000000
   1 Ti   22.0000    0    47.900    0.000010    2.797837   -2.019978
   2 Ti   22.0000    0    47.900    0.000010   -2.797840   -2.019969
   3 O     8.0000    0    15.999    0.000008   -0.000002   -4.815784
   4 O     8.0000    0    15.999   -3.846082    2.797825   -2.100419
   5 O     8.0000    0    15.999    3.846094    2.797825   -2.100415
   6 O     8.0000    0    15.999    3.846093   -2.797828   -2.100417
   7 O     8.0000    0    15.999   -3.846082   -2.797829   -2.100421
   8 O     8.0000    0    15.999   -0.000001    5.595652   -0.000005
   9 O     8.0000    0    15.999   -0.000001   -5.595660   -0.000005
  10 O     8.0000    0    15.999    0.000009    5.595653   -4.815786
  11 O     8.0000    0    15.999    0.000009   -5.595659   -4.815786
  12 Ti   22.0000    0    47.900   -0.000099   -0.000001   -8.339142
  13 O     8.0000    0    15.999   -2.458662    2.797826   -8.534853
  14 O     8.0000    0    15.999    2.458706    2.797826   -8.534863
  15 O     8.0000    0    15.999    2.458706   -2.797831   -8.534863
  16 O     8.0000    0    15.999   -2.458662   -2.797830   -8.534853
  17 O     8.0000    0    15.999   -0.000006   -0.000002  -12.308387
  18 Ti>   4.0000    0     0.000    6.149213   -0.000002   -2.696945
  19 Ti>   4.0000    0     0.000   -6.149199   -0.000002   -2.696945
  20 Ti>   4.0000    0     0.000    0.000010    8.393472   -2.019969
  21 Ti>   4.0000    0     0.000    0.000010   -8.393475   -2.019978
  22 Ti>   4.0000    0     0.000   -6.149200    5.595655   -2.696946
  23 Ti>   4.0000    0     0.000    6.149212    5.595655   -2.696946
  24 Ti>   4.0000    0     0.000    6.149212   -5.595657   -2.696946
  25 Ti>   4.0000    0     0.000   -6.149200   -5.595657   -2.696946
  26 Ti>   4.0000    0     0.000   -0.000098    5.595655   -8.339139
  27 Ti>   4.0000    0     0.000   -0.000098   -5.595657   -8.339139
  28 Ti>   4.0000    0     0.000    6.149078    2.797825   -8.692576
  29 Ti>   4.0000    0     0.000    6.149078   -2.797829   -8.692576
  30 Ti>   4.0000    0     0.000   -6.149334    2.797825   -8.692576
  31 Ti>   4.0000    0     0.000   -6.149334   -2.797829   -8.692576
  32 Ti>   4.0000    0     0.000  -12.298402    2.797837   -2.019978
  33 Ti>   4.0000    0     0.000   12.298422    2.797837   -2.019978
  34 Ti>   4.0000    0     0.000   12.298422   -2.797840   -2.019969
  35 Ti>   4.0000    0     0.000  -12.298402   -2.797840   -2.019969
  36 Ti>   4.0000    0     0.000   -6.149199   11.191310   -2.696945
  37 Ti>   4.0000    0     0.000    6.149213   11.191310   -2.696945
  38 Ti>   4.0000    0     0.000    6.149213  -11.191314   -2.696945
  39 Ti>   4.0000    0     0.000   -6.149199  -11.191314   -2.696945
  40 Ti>   4.0000    0     0.000    6.149078    8.393483   -8.692576
  41 Ti>   4.0000    0     0.000    6.149078   -8.393486   -8.692576
  42 Ti>   4.0000    0     0.000   -6.149334    8.393483   -8.692576
  43 Ti>   4.0000    0     0.000   -6.149334   -8.393486   -8.692576
  44 Ti>   4.0000    0     0.000   -0.000099   11.191310   -8.339142
  45 Ti>   4.0000    0     0.000   -0.000099  -11.191313   -8.339142
  46 Ti>   4.0000    0     0.000    0.000010   13.989149   -2.019978
  47 Ti>   4.0000    0     0.000    0.000010  -13.989152   -2.019969
  48 Ti>   4.0000    0     0.000   12.298313   -0.000001   -8.339142
  49 Ti>   4.0000    0     0.000  -12.298511   -0.000001   -8.339142
  50 Ti>   4.0000    0     0.000   -0.000006    2.797826  -14.712291
  51 Ti>   4.0000    0     0.000   -0.000006   -2.797830  -14.712291
  52 Ti>   4.0000    0     0.000  -12.298402    8.393472   -2.019969
  53 Ti>   4.0000    0     0.000   12.298422    8.393472   -2.019969
  54 Ti>   4.0000    0     0.000   12.298422   -8.393475   -2.019978
  55 Ti>   4.0000    0     0.000  -12.298402   -8.393475   -2.019978
  56 Ti>   4.0000    0     0.000   12.298314    5.595655   -8.339139
  57 Ti>   4.0000    0     0.000   12.298314   -5.595657   -8.339139
  58 Ti>   4.0000    0     0.000  -12.298510    5.595655   -8.339139
  59 Ti>   4.0000    0     0.000  -12.298510   -5.595657   -8.339139
  60 Ti>   4.0000    0     0.000    6.149200   -0.000002  -14.712291
  61 Ti>   4.0000    0     0.000   -6.149212   -0.000002  -14.712291
  62 Ti>   4.0000    0     0.000   -6.149212    5.595654  -14.712291
  63 Ti>   4.0000    0     0.000    6.149200    5.595654  -14.712291
  64 Ti>   4.0000    0     0.000    6.149200   -5.595658  -14.712291
  65 Ti>   4.0000    0     0.000   -6.149212   -5.595658  -14.712291
  66 Ti>   4.0000    0     0.000   -0.000006    8.393482  -14.712291
  67 Ti>   4.0000    0     0.000   -0.000006   -8.393486  -14.712291
  68 Ti>   4.0000    0     0.000   -6.149334   13.989137   -8.692576
  69 Ti>   4.0000    0     0.000    6.149078   13.989137   -8.692576
  70 Ti>   4.0000    0     0.000    6.149078  -13.989140   -8.692576
  71 Ti>   4.0000    0     0.000   -6.149334  -13.989140   -8.692576
  72 Ti>   4.0000    0     0.000   -6.149200   16.786967   -2.696946
  73 Ti>   4.0000    0     0.000    6.149212   16.786967   -2.696946
  74 Ti>   4.0000    0     0.000    6.149212  -16.786968   -2.696946
  75 Ti>   4.0000    0     0.000   -6.149200  -16.786968   -2.696946
  76 Ti>   4.0000    0     0.000   12.298313   11.191310   -8.339142
  77 Ti>   4.0000    0     0.000   12.298313  -11.191313   -8.339142
  78 Ti>   4.0000    0     0.000  -12.298511   11.191310   -8.339142
  79 Ti>   4.0000    0     0.000  -12.298511  -11.191313   -8.339142
  80 Ti>   4.0000    0     0.000   -0.000098   16.786967   -8.339139
  81 Ti>   4.0000    0     0.000   -0.000098  -16.786969   -8.339139
  82 Ti>   4.0000    0     0.000  -12.298418    2.797826  -14.712291
  83 Ti>   4.0000    0     0.000   12.298406    2.797826  -14.712291
  84 Ti>   4.0000    0     0.000   12.298406   -2.797830  -14.712291
  85 Ti>   4.0000    0     0.000  -12.298418   -2.797830  -14.712291
  86 Ti>   4.0000    0     0.000   -6.149212   11.191310  -14.712291
  87 Ti>   4.0000    0     0.000    6.149200   11.191310  -14.712291
  88 Ti>   4.0000    0     0.000    6.149200  -11.191314  -14.712291
  89 Ti>   4.0000    0     0.000   -6.149212  -11.191314  -14.712291
  90 Ti>   4.0000    0     0.000   -0.000006   13.989138  -14.712291
  91 Ti>   4.0000    0     0.000   -0.000006  -13.989141  -14.712291
  92 Ti>   4.0000    0     0.000   -0.000006   -0.000002  -20.861497
  93 Ti>   4.0000    0     0.000  -12.298418    8.393482  -14.712291
  94 Ti>   4.0000    0     0.000   12.298406    8.393482  -14.712291
  95 Ti>   4.0000    0     0.000   12.298406   -8.393486  -14.712291
  96 Ti>   4.0000    0     0.000  -12.298418   -8.393486  -14.712291
  97 Ti>   4.0000    0     0.000   -0.000006    5.595654  -20.861497
  98 Ti>   4.0000    0     0.000   -0.000006   -5.595658  -20.861497
  99 Ti>   4.0000    0     0.000   -6.149212    2.797826  -20.861497
 100 Ti>   4.0000    0     0.000    6.149200    2.797826  -20.861497
 101 Ti>   4.0000    0     0.000    6.149200   -2.797830  -20.861497
 102 Ti>   4.0000    0     0.000   -6.149212   -2.797830  -20.861497
> coreless ECP center with (optional) point charge

--------------------------------
INTERNAL COORDINATES (ANGSTROEM)
--------------------------------
 O      0   0   0     0.000000000000     0.00000000     0.00000000
 Ti     1   0   0     1.826098483252     0.00000000     0.00000000
 Ti     1   2   0     1.826097063306   108.34321415     0.00000000
 O      2   1   3     2.093057118869    80.80764629     0.00000000
 O      2   1   3     2.035709617889    90.70101716    89.02863937
 O      2   1   3     2.035705038603    90.70132129   270.97178739
 O      3   1   2     2.035704375863    90.70142476    89.02807847
 O      3   1   2     2.035709824520    90.70111581   270.97149260
 O      2   1   3     1.826087614204   108.34292419   179.99999251
 O      3   1   2     1.826086776018   108.34323519   180.00001748
 O      2   1   3     2.093049508223   170.84902752     0.00000000
 O      3   1   2     2.093053849171   170.84881627     0.00000000
 Ti     4   2   1     1.864480942980   134.97916629   179.99739930
 O     13   4   2     1.973673390264    93.00905403   318.69469968
 O     13   4   2     1.973757584134    93.00678615    41.31162599
 O     13   4   2     1.973758185305    93.00676131   138.69179810
 O     13   4   2     1.973673811931    93.00902878   221.30869087
 O     13   4   2     2.100433939645   179.99691945    90.38412116
 Ti>    7   3   1     1.943459621643   129.07739454   313.09097521
 Ti>    8   3   1     1.943458546842   129.07736791    46.90890739
 Ti>    9   2   1     1.826086776009   108.34294524   179.99998252
 Ti>   10   3   1     1.826087614204   108.34294524   180.00000759
 Ti>    5   2   1     1.943460434294   129.07697438   155.26413262
 Ti>    6   2   1     1.943460549729   129.07695411   204.73573064
 Ti>    7   3   1     1.943460200909   129.07702078   155.26424088
 Ti>    8   3   1     1.943459506351   129.07704137   204.73588289
 Ti>   11   2   9     1.864477681998   134.97947132   180.00261235
 Ti>   12   3  10     1.864477681998   134.97947069   179.99738765
 Ti>   15  13   4     1.954643653256   131.36553321    90.61175580
 Ti>   16  13   4     1.954643524216   131.36550222   269.38823083
 Ti>   14  13   4     1.954801725292   131.36274914   269.38553163
 Ti>   17  13   4     1.954801966071   131.36273112    90.61448183
 Ti>   23   5   2     3.592904770073   103.75912215   182.19317944
 Ti>   24   6   2     3.592909124821   103.75914076   177.80693444
 Ti>   34  24   6     2.961104620864   114.33514894    13.70194122
 Ti>   33  23   5     2.961104620864   114.33517454   346.29812182
 Ti>   23   5   2     2.961092926020   139.62402324   342.73205762
 Ti>   24   6   2     2.961092926020   139.62403651    17.26815680
 Ti>   25   7   3     2.961094145900   139.62401672   342.73213459
 Ti>   26   8   3     2.961094145900   139.62400890    17.26767399
 Ti>   29  15  13     2.961094512320    89.99997901   181.85386889
 Ti>   30  16  13     2.961094512330    89.99997518   178.14614887
 Ti>   31  14  13     2.961094512320    89.99998377   178.14609664
 Ti>   32  17  13     2.961094512330    89.99997235   181.85388435
 Ti>   27  11   2     2.961093345411    90.00006819   179.99829400
 Ti>   28  12   3     2.961093726511    90.00000523   180.00170016
 Ti>   21   9   2     2.961104620864   144.17164420   179.99999001
 Ti>   22  10   3     2.961104620864   144.17130104   179.99998997
 Ti>   29  15  13     3.579907814782   154.94642396   349.44357672
 Ti>   32  17  13     3.579880005705   154.94623147   349.44376908
 Ti>   18  13   4     1.951982412552   130.66928941   269.61642955
 Ti>   18  13   4     1.951982412552   130.66930535    89.61873273
 Ti>   33  23   5     2.961082451064    65.66483947   166.29792358
 Ti>   34  24   6     2.961082451064    65.66487669   193.70213806
 Ti>   35  34  24     2.961082451074   179.99981884    81.86878434
 Ti>   36  33  23     2.961082451074   179.99981884   274.43353391
 Ti>   49  29  15     2.961093726511    65.57064724   193.65315954
 Ti>   49  29  15     2.961093345421   114.42936239    13.65307937
 Ti>   50  32  17     2.961093726511   114.42956738    13.65292529
 Ti>   50  32  17     2.961093345421    65.57043142   193.65300614
 Ti>   18  13   4     3.493831776296   111.35332200   359.61757802
 Ti>   18  13   4     3.493831776296   111.35064140   179.61758426
 Ti>   62  18  13     2.961093535960    90.00000000    89.99999144
 Ti>   61  18  13     2.961093535960    90.00000000   270.00000856
 Ti>   61  18  13     2.961093535960    90.00000000    90.00000856
 Ti>   62  18  13     2.961093535960    90.00000000   269.99999144
 Ti>   51  18  13     2.961093535960   139.33070260     0.00000000
 Ti>   52  18  13     2.961093535970   139.33070260     0.00000000
 Ti>   43  31  14     2.961092559600   179.99998163     0.00000000
 Ti>   41  29  15     2.961092559600   179.99998163     0.00000000
 Ti>   42  30  16     2.961092559600   179.99998173     0.00000000
 Ti>   44  32  17     2.961092559600   179.99998173     0.00000000
 Ti>   37  23   5     2.961094145910   179.99997423   164.60199535
 Ti>   38  24   6     2.961094145910   179.99997423   315.55990180
 Ti>   39  25   7     2.961092926020   179.99997423    44.44003271
 Ti>   40  26   8     2.961092926020   179.99997423   195.39805726
 Ti>   57  49  29     2.961093345411   179.99992638   277.51412942
 Ti>   58  49  29     2.961093726511   179.99992636    82.48590374
 Ti>   59  50  32     2.961093345411   179.99992638    90.93506564
 Ti>   60  50  32     2.961093726511   179.99992636   269.06496780
 Ti>   45  27  11     2.961093726511   179.99992634     4.22285443
 Ti>   46  28  12     2.961093345411   179.99992636   355.77714557
 Ti>   62  18  13     3.575005259646   147.96649085    51.33217778
 Ti>   61  18  13     3.575005259655   147.96649085   308.66782222
 Ti>   84  61  18     2.961093535960    65.53493421   136.65130933
 Ti>   83  62  18     2.961093535960    65.53493421   223.34869067
 Ti>   63  62  18     2.961093535960   180.00000000     0.00000000
 Ti>   64  61  18     2.961093535960   180.00000000     0.00000000
 Ti>   65  61  18     2.961093535970   179.99999829     0.00000000
 Ti>   66  62  18     2.961093535970   179.99999829     0.00000000
 Ti>   67  51  18     2.961093535960   179.99999879     0.00000000
 Ti>   68  52  18     2.961093535960   179.99999829     0.00000000
 Ti>   51  18  13     3.575005259646   106.20423161   180.00176708
 Ti>   83  62  18     2.961093535960   114.46506579    43.34869067
 Ti>   84  61  18     2.961093535960   114.46506579   316.65130933
 Ti>   85  84  61     2.961093535970   180.00000000     0.00000000
 Ti>   86  83  62     2.961093535970   180.00000000     0.00000000
 Ti>   93  51  18     2.961093535960    65.53493421   180.00000000
 Ti>   93  51  18     2.961093535960   114.46506579     0.00000000
 Ti>   62  18  13     3.575005259646   109.35411096   153.96348275
 Ti>   61  18  13     3.575005259646   109.35411096   206.03651725
 Ti>  101  61  18     2.961093535960    65.53493421   260.80367757
 Ti>  100  62  18     2.961093535960    65.53493421    99.19632243

---------------------------
INTERNAL COORDINATES (A.U.)
---------------------------
 O      0   0   0     0.000000000000     0.00000000     0.00000000
 Ti     1   0   0     3.450826026915     0.00000000     0.00000000
 Ti     1   2   0     3.450823343607   108.34321415     0.00000000
 O      2   1   3     3.955304737318    80.80764629     0.00000000
 O      2   1   3     3.846933666000    90.70101716    89.02863937
 O      2   1   3     3.846925012404    90.70132129   270.97178739
 O      3   1   2     3.846923760006    90.70142476    89.02807847
 O      3   1   2     3.846934056476    90.70111581   270.97149260
 O      2   1   3     3.450805487392   108.34292419   179.99999251
 O      3   1   2     3.450803903448   108.34323519   180.00001748
 O      2   1   3     3.955290355280   170.84902752     0.00000000
 O      3   1   2     3.955298558482   170.84881627     0.00000000
 Ti     4   2   1     3.523358364147   134.97916629   179.99739930
 O     13   4   2     3.729702185407    93.00905403   318.69469968
 O     13   4   2     3.729861288764    93.00678615    41.31162599
 O     13   4   2     3.729862424812    93.00676131   138.69179810
 O     13   4   2     3.729702982242    93.00902878   221.30869087
 O     13   4   2     3.969244908322   179.99691945    90.38412116
 Ti>    7   3   1     3.672606437239   129.07739454   313.09097521
 Ti>    8   3   1     3.672604406160   129.07736791    46.90890739
 Ti>    9   2   1     3.450803903433   108.34294524   179.99998252
 Ti>   10   3   1     3.450805487392   108.34294524   180.00000759
 Ti>    5   2   1     3.672607972928   129.07697438   155.26413262
 Ti>    6   2   1     3.672608191067   129.07695411   204.73573064
 Ti>    7   3   1     3.672607531894   129.07702078   155.26424088
 Ti>    8   3   1     3.672606219368   129.07704137   204.73588289
 Ti>   11   2   9     3.523352201785   134.97947132   180.00261235
 Ti>   12   3  10     3.523352201785   134.97947069   179.99738765
 Ti>   15  13   4     3.693741194060   131.36553321    90.61175580
 Ti>   16  13   4     3.693740950211   131.36550222   269.38823083
 Ti>   14  13   4     3.694039906918   131.36274914   269.38553163
 Ti>   17  13   4     3.694040361925   131.36273112    90.61448183
 Ti>   23   5   2     6.789606040697   103.75912215   182.19317944
 Ti>   24   6   2     6.789614269979   103.75914076   177.80693444
 Ti>   34  24   6     5.595676787321   114.33514894    13.70194122
 Ti>   33  23   5     5.595676787321   114.33517454   346.29812182
 Ti>   23   5   2     5.595654687269   139.62402324   342.73205762
 Ti>   24   6   2     5.595654687269   139.62403651    17.26815680
 Ti>   25   7   3     5.595656992509   139.62401672   342.73213459
 Ti>   26   8   3     5.595656992509   139.62400890    17.26767399
 Ti>   29  15  13     5.595657684942    89.99997901   181.85386889
 Ti>   30  16  13     5.595657684961    89.99997518   178.14614887
 Ti>   31  14  13     5.595657684942    89.99998377   178.14609664
 Ti>   32  17  13     5.595657684961    89.99997235   181.85388435
 Ti>   27  11   2     5.595655479803    90.00006819   179.99829400
 Ti>   28  12   3     5.595656199977    90.00000523   180.00170016
 Ti>   21   9   2     5.595676787321   144.17164420   179.99999001
 Ti>   22  10   3     5.595676787321   144.17130104   179.99998997
 Ti>   29  15  13     6.765045354623   154.94642396   349.44357672
 Ti>   32  17  13     6.764992803083   154.94623147   349.44376908
 Ti>   18  13   4     3.688712177955   130.66928941   269.61642955
 Ti>   18  13   4     3.688712177955   130.66930535    89.61873273
 Ti>   33  23   5     5.595634892471    65.66483947   166.29792358
 Ti>   34  24   6     5.595634892471    65.66487669   193.70213806
 Ti>   35  34  24     5.595634892490   179.99981884    81.86878434
 Ti>   36  33  23     5.595634892490   179.99981884   274.43353391
 Ti>   49  29  15     5.595656199977    65.57064724   193.65315954
 Ti>   49  29  15     5.595655479822   114.42936239    13.65307937
 Ti>   50  32  17     5.595656199977   114.42956738    13.65292529
 Ti>   50  32  17     5.595655479822    65.57043142   193.65300614
 Ti>   18  13   4     6.602385215192   111.35332200   359.61757802
 Ti>   18  13   4     6.602385215192   111.35064140   179.61758426
 Ti>   62  18  13     5.595655839889    90.00000000    89.99999144
 Ti>   61  18  13     5.595655839889    90.00000000   270.00000856
 Ti>   61  18  13     5.595655839889    90.00000000    90.00000856
 Ti>   62  18  13     5.595655839889    90.00000000   269.99999144
 Ti>   51  18  13     5.595655839889   139.33070260     0.00000000
 Ti>   52  18  13     5.595655839908   139.33070260     0.00000000
 Ti>   43  31  14     5.595653994836   179.99998163     0.00000000
 Ti>   41  29  15     5.595653994836   179.99998163     0.00000000
 Ti>   42  30  16     5.595653994836   179.99998173     0.00000000
 Ti>   44  32  17     5.595653994836   179.99998173     0.00000000
 Ti>   37  23   5     5.595656992527   179.99997423   164.60199535
 Ti>   38  24   6     5.595656992527   179.99997423   315.55990180
 Ti>   39  25   7     5.595654687269   179.99997423    44.44003271
 Ti>   40  26   8     5.595654687269   179.99997423   195.39805726
 Ti>   57  49  29     5.595655479803   179.99992638   277.51412942
 Ti>   58  49  29     5.595656199977   179.99992636    82.48590374
 Ti>   59  50  32     5.595655479803   179.99992638    90.93506564
 Ti>   60  50  32     5.595656199977   179.99992636   269.06496780
 Ti>   45  27  11     5.595656199977   179.99992634     4.22285443
 Ti>   46  28  12     5.595655479803   179.99992636   355.77714557
 Ti>   62  18  13     6.755780868059   147.96649085    51.33217778
 Ti>   61  18  13     6.755780868076   147.96649085   308.66782222
 Ti>   84  61  18     5.595655839889    65.53493421   136.65130933
 Ti>   83  62  18     5.595655839889    65.53493421   223.34869067
 Ti>   63  62  18     5.595655839889   180.00000000     0.00000000
 Ti>   64  61  18     5.595655839889   180.00000000     0.00000000
 Ti>   65  61  18     5.595655839908   179.99999829     0.00000000
 Ti>   66  62  18     5.595655839908   179.99999829     0.00000000
 Ti>   67  51  18     5.595655839889   179.99999879     0.00000000
 Ti>   68  52  18     5.595655839889   179.99999829     0.00000000
 Ti>   51  18  13     6.755780868059   106.20423161   180.00176708
 Ti>   83  62  18     5.595655839889   114.46506579    43.34869067
 Ti>   84  61  18     5.595655839889   114.46506579   316.65130933
 Ti>   85  84  61     5.595655839908   180.00000000     0.00000000
 Ti>   86  83  62     5.595655839908   180.00000000     0.00000000
 Ti>   93  51  18     5.595655839889    65.53493421   180.00000000
 Ti>   93  51  18     5.595655839889   114.46506579     0.00000000
 Ti>   62  18  13     6.755780868059   109.35411096   153.96348275
 Ti>   61  18  13     6.755780868059   109.35411096   206.03651725
 Ti>  101  61  18     5.595655839889    65.53493421   260.80367757
 Ti>  100  62  18     5.595655839889    65.53493421    99.19632243

---------------------
BASIS SET INFORMATION
---------------------
There are 3 groups of distinct atoms

 Group   1 Type O   : 7s4p1d contracted to 3s2p1d pattern {511/31/1}
 Group   2 Type Ti  : 14s9p5d1f contracted to 5s3p2d1f pattern {63311/531/41/1}
 Group   3 Type Q,> :  contracted to  pattern {}

Atom   0O    basis set group =>   1
Atom   1Ti   basis set group =>   2
Atom   2Ti   basis set group =>   2
Atom   3O    basis set group =>   1
Atom   4O    basis set group =>   1
Atom   5O    basis set group =>   1
Atom   6O    basis set group =>   1
Atom   7O    basis set group =>   1
Atom   8O    basis set group =>   1
Atom   9O    basis set group =>   1
Atom  10O    basis set group =>   1
Atom  11O    basis set group =>   1
Atom  12Ti   basis set group =>   2
Atom  13O    basis set group =>   1
Atom  14O    basis set group =>   1
Atom  15O    basis set group =>   1
Atom  16O    basis set group =>   1
[...]
  59 Q :    4.000000
  60 Q :    4.000000
  61 Q :    4.000000
  62 Q :    4.000000
  63 Q :    4.000000
  64 Q :    4.000000
  65 Q :    4.000000
  66 Q :    4.000000
  67 Q :    4.000000
  68 Q :    4.000000
  69 Q :    4.000000
  70 Q :    4.000000
  71 Q :    4.000000
  72 Q :    4.000000
  73 Q :    4.000000
  74 Q :    4.000000
  75 Q :    4.000000
  76 Q :    4.000000
  77 Q :    4.000000
  78 Q :    4.000000
  79 Q :    4.000000
  80 Q :    4.000000
  81 Q :    4.000000
  82 Q :    4.000000
  83 Q :    4.000000
  84 Q :    4.000000
  85 Q :    4.000000
  86 Q :    4.000000
  87 Q :    4.000000
  88 Q :    4.000000
  89 Q :    4.000000
  90 Q :    4.000000
  91 Q :    4.000000
  92 Q :    4.000000
  93 Q :    4.000000
  94 Q :    4.000000
  95 Q :    4.000000
  96 Q :    4.000000
  97 Q :    4.000000
  98 Q :    4.000000
  99 Q :    4.000000
 100 Q :    4.000000
 101 Q :    4.000000
 102 Q :    4.000000

-------------------------------
LOEWDIN REDUCED ORBITAL CHARGES
-------------------------------
  0 O s       :     0.212948  s :     0.212948
      pz      :     0.064972  p :     0.162573
      px      :     0.015358
      py      :     0.082243
      dz2     :     0.000582  d :     0.005259
      dxz     :     0.000122
      dyz     :     0.002844
      dx2y2   :     0.001596
      dxy     :     0.000115
  1 Tis       :     6.390486  s :     6.390486
      pz      :     4.251902  p :    12.829654
      px      :     4.311131
      py      :     4.266621
      dz2     :     0.487243  d :     2.644219
      dxz     :     0.254660
      dyz     :     0.783089
      dx2y2   :     0.799469
      dxy     :     0.319759
      f0      :     0.010714  f :     0.123746
      f+1     :     0.011841
      f-1     :     0.022219
      f+2     :     0.030457
      f-2     :     0.009006
      f+3     :     0.024304
      f-3     :     0.015205
  2 Tis       :     6.390729  s :     6.390729
      pz      :     4.251790  p :    12.829601
      px      :     4.311134
      py      :     4.266677
      dz2     :     0.486913  d :     2.643975
      dxz     :     0.254704
      dyz     :     0.782888
      dx2y2   :     0.799698
      dxy     :     0.319771
      f0      :     0.010714  f :     0.123742
      f+1     :     0.011842
      f-1     :     0.022216
      f+2     :     0.030454
      f-2     :     0.009006
      f+3     :     0.024304
      f-3     :     0.015205
  3 O s       :     3.517647  s :     3.517647
      pz      :     1.548251  p :     4.709421
      px      :     1.604975
      py      :     1.556196
      dz2     :     0.003412  d :     0.005832
      dxz     :     0.000330
      dyz     :     0.001110
      dx2y2   :     0.000832
      dxy     :     0.000148
  4 O s       :     3.769509  s :     3.769509
      pz      :     1.911219  p :     5.671487
      px      :     1.837708
      py      :     1.922560
      dz2     :     0.000723  d :     0.004599
      dxz     :     0.000998
      dyz     :     0.000172
      dx2y2   :     0.001087
      dxy     :     0.001619
  5 O s       :     3.769507  s :     3.769507
      pz      :     1.911218  p :     5.671483
      px      :     1.837706
      py      :     1.922558
      dz2     :     0.000723  d :     0.004599
      dxz     :     0.000998
      dyz     :     0.000172
      dx2y2   :     0.001087
      dxy     :     0.001619
  6 O s       :     3.769508  s :     3.769508
      pz      :     1.911198  p :     5.671448
      px      :     1.837696
      py      :     1.922555
      dz2     :     0.000723  d :     0.004599
      dxz     :     0.000998
      dyz     :     0.000172
      dx2y2   :     0.001088
      dxy     :     0.001619
  7 O s       :     3.769510  s :     3.769510
      pz      :     1.911199  p :     5.671453
      px      :     1.837697
      py      :     1.922557
      dz2     :     0.000723  d :     0.004599
      dxz     :     0.000998
      dyz     :     0.000171
      dx2y2   :     0.001088
      dxy     :     0.001619
  8 O s       :     3.705414  s :     3.705414
      pz      :     1.679697  p :     5.128123
      px      :     1.703284
      py      :     1.745142
      dz2     :     0.002115  d :     0.008209
      dxz     :     0.001101
      dyz     :     0.003561
      dx2y2   :     0.001296
      dxy     :     0.000135
  9 O s       :     3.705421  s :     3.705421
      pz      :     1.679665  p :     5.128022
      px      :     1.703292
      py      :     1.745065
      dz2     :     0.002115  d :     0.008208
      dxz     :     0.001101
      dyz     :     0.003562
      dx2y2   :     0.001295
      dxy     :     0.000135
 10 O s       :     3.795440  s :     3.795440
      pz      :     1.877559  p :     5.649038
      px      :     1.908225
      py      :     1.863255
      dz2     :     0.001370  d :     0.003129
      dxz     :     0.000240
      dyz     :     0.001012
      dx2y2   :     0.000318
      dxy     :     0.000189
 11 O s       :     3.795454  s :     3.795454
      pz      :     1.877537  p :     5.649009
      px      :     1.908218
      py      :     1.863255
      dz2     :     0.001369  d :     0.003129
      dxz     :     0.000240
      dyz     :     0.001012
      dx2y2   :     0.000318
      dxy     :     0.000189
 12 Tis       :     6.385230  s :     6.385230
      pz      :     4.295935  p :    12.929466
      px      :     4.308860
      py      :     4.324670
      dz2     :     0.767151  d :     2.703333
      dxz     :     0.389960
      dyz     :     0.390119
      dx2y2   :     0.445543
      dxy     :     0.710560
      f0      :     0.046157  f :     0.175936
      f+1     :     0.024546
      f-1     :     0.026990
      f+2     :     0.000482
      f-2     :     0.013460
      f+3     :     0.039048
      f-3     :     0.025254
 13 O s       :     3.752131  s :     3.752131
      pz      :     1.878001  p :     5.591335
      px      :     1.869535
      py      :     1.843799
      dz2     :     0.000649  d :     0.003139
      dxz     :     0.000165
      dyz     :     0.000297
      dx2y2   :     0.000828
      dxy     :     0.001200
 14 O s       :     3.752163  s :     3.752163
      pz      :     1.878037  p :     5.591400
      px      :     1.869540
      py      :     1.843822
      dz2     :     0.000649  d :     0.003138
      dxz     :     0.000166
      dyz     :     0.000297
      dx2y2   :     0.000828
      dxy     :     0.001199
 15 O s       :     3.752165  s :     3.752165
      pz      :     1.878048  p :     5.591401
      px      :     1.869523
      py      :     1.843830
      dz2     :     0.000649  d :     0.003138
      dxz     :     0.000166
      dyz     :     0.000297
      dx2y2   :     0.000828
      dxy     :     0.001199
 16 O s       :     3.752132  s :     3.752132
      pz      :     1.878011  p :     5.591335
      px      :     1.869517
      py      :     1.843807
      dz2     :     0.000649  d :     0.003139
      dxz     :     0.000166
      dyz     :     0.000297
      dx2y2   :     0.000828
      dxy     :     0.001199
 17 O s       :     3.791846  s :     3.791846
      pz      :     1.824032  p :     5.673316
      px      :     1.917325
      py      :     1.931959
      dz2     :     0.001180  d :     0.003529
      dxz     :     0.000723
      dyz     :     0.001341
      dx2y2   :     0.000231
      dxy     :     0.000054
 18 Q 
 19 Q 
 20 Q 
 21 Q 
 22 Q 
 23 Q 
 24 Q 
 25 Q 
 26 Q 
 27 Q 
 28 Q 
 29 Q 
 30 Q 
 31 Q 
 32 Q 
 33 Q 
 34 Q 
 35 Q 
 36 Q 
 37 Q 
 38 Q 
 39 Q 
 40 Q 
 41 Q 
 42 Q 
 43 Q 
 44 Q 
 45 Q 
 46 Q 
 47 Q 
 48 Q 
 49 Q 
 50 Q 
 51 Q 
 52 Q 
 53 Q 
 54 Q 
 55 Q 
 56 Q 
 57 Q 
 58 Q 
 59 Q 
 60 Q 
 61 Q 
 62 Q 
 63 Q 
 64 Q 
 65 Q 
 66 Q 
 67 Q 
 68 Q 
 69 Q 
 70 Q 
 71 Q 
 72 Q 
 73 Q 
 74 Q 
 75 Q 
 76 Q 
 77 Q 
 78 Q 
 79 Q 
 80 Q 
 81 Q 
 82 Q 
 83 Q 
 84 Q 
 85 Q 
 86 Q 
 87 Q 
 88 Q 
 89 Q 
 90 Q 
 91 Q 
 92 Q 
 93 Q 
 94 Q 
 95 Q 
 96 Q 
 97 Q 
 98 Q 
 99 Q 
100 Q 
101 Q 
102 Q 


                      *****************************
                      * MAYER POPULATION ANALYSIS *
                      *****************************

  NA   - Mulliken gross atomic population
  ZA   - Total nuclear charge
  QA   - Mulliken gross atomic charge
  VA   - Mayer's total valence
  BVA  - Mayer's bonded valence
  FA   - Mayer's free valence

  ATOM       NA         ZA         QA         VA         BVA        FA
  0 O      0.0165     0.0000    -0.0165     0.0326     0.0326     0.0000
  1 Ti    21.1259    22.0000     0.8741     4.6785     4.6785     0.0000
  2 Ti    21.1264    22.0000     0.8736     4.6790     4.6790     0.0000
  3 O      8.5942     8.0000    -0.5942     2.2391     2.2391     0.0000
  4 O      9.6991     8.0000    -1.6991     0.5707     0.5707     0.0000
  5 O      9.6991     8.0000    -1.6991     0.5707     0.5707     0.0000
  6 O      9.6991     8.0000    -1.6991     0.5708     0.5708     0.0000
  7 O      9.6991     8.0000    -1.6991     0.5708     0.5708     0.0000
  8 O      9.0778     8.0000    -1.0778     1.5285     1.5285     0.0000
  9 O      9.0777     8.0000    -1.0777     1.5287     1.5287     0.0000
 10 O      9.6439     8.0000    -1.6439     0.6648     0.6648     0.0000
 11 O      9.6438     8.0000    -1.6438     0.6649     0.6649     0.0000
 12 Ti    20.8368    22.0000     1.1632     4.7614     4.7614     0.0000
 13 O      9.6003     8.0000    -1.6003     0.7337     0.7337     0.0000
 14 O      9.6004     8.0000    -1.6004     0.7336     0.7336     0.0000
 15 O      9.6004     8.0000    -1.6004     0.7336     0.7336     0.0000
 16 O      9.6003     8.0000    -1.6003     0.7337     0.7337     0.0000
 17 O      9.6592     8.0000    -1.6592     0.6386     0.6386     0.0000
 18 Q      0.0000     4.0000     4.0000     0.0000     0.0000     0.0000
 19 Q      0.0000     4.0000     4.0000     0.0000     0.0000     0.0000
 20 Q      0.0000     4.0000     4.0000     0.0000     0.0000     0.0000
 21 Q      0.0000     4.0000     4.0000     0.0000     0.0000     0.0000
 22 Q      0.0000     4.0000     4.0000     0.0000     0.0000     0.0000
 23 Q      0.0000     4.0000     4.0000     0.0000     0.0000     0.0000
 24 Q      0.0000     4.0000     4.0000     0.0000     0.0000     0.0000
 25 Q      0.0000     4.0000     4.0000     0.0000     0.0000     0.0000
 26 Q      0.0000     4.0000     4.0000     0.0000     0.0000     0.0000
 27 Q      0.0000     4.0000     4.0000     0.0000     0.0000     0.0000
 28 Q      0.0000     4.0000     4.0000     0.0000     0.0000     0.0000
 29 Q      0.0000     4.0000     4.0000     0.0000     0.0000     0.0000
 30 Q      0.0000     4.0000     4.0000     0.0000     0.0000     0.0000
 31 Q      0.0000     4.0000     4.0000     0.0000     0.0000     0.0000
 32 Q      0.0000     4.0000     4.0000     0.0000     0.0000     0.0000
 33 Q      0.0000     4.0000     4.0000     0.0000     0.0000     0.0000
 34 Q      0.0000     4.0000     4.0000     0.0000     0.0000     0.0000
 35 Q      0.0000     4.0000     4.0000     0.0000     0.0000     0.0000
 36 Q      0.0000     4.0000     4.0000     0.0000     0.0000     0.0000
 37 Q      0.0000     4.0000     4.0000     0.0000     0.0000     0.0000
 38 Q      0.0000     4.0000     4.0000     0.0000     0.0000     0.0000
 39 Q      0.0000     4.0000     4.0000     0.0000     0.0000     0.0000
 40 Q      0.0000     4.0000     4.0000     0.0000     0.0000     0.0000
 41 Q      0.0000     4.0000     4.0000     0.0000     0.0000     0.0000
 42 Q      0.0000     4.0000     4.0000     0.0000     0.0000     0.0000
 43 Q      0.0000     4.0000     4.0000     0.0000     0.0000     0.0000
 44 Q      0.0000     4.0000     4.0000     0.0000     0.0000     0.0000
 45 Q      0.0000     4.0000     4.0000     0.0000     0.0000     0.0000
 46 Q      0.0000     4.0000     4.0000     0.0000     0.0000     0.0000
 47 Q      0.0000     4.0000     4.0000     0.0000     0.0000     0.0000
 48 Q      0.0000     4.0000     4.0000     0.0000     0.0000     0.0000
 49 Q      0.0000     4.0000     4.0000     0.0000     0.0000     0.0000
 50 Q      0.0000     4.0000     4.0000     0.0000     0.0000     0.0000
 51 Q      0.0000     4.0000     4.0000     0.0000     0.0000     0.0000
 52 Q      0.0000     4.0000     4.0000     0.0000     0.0000     0.0000
 53 Q      0.0000     4.0000     4.0000     0.0000     0.0000     0.0000
 54 Q      0.0000     4.0000     4.0000     0.0000     0.0000     0.0000
 55 Q      0.0000     4.0000     4.0000     0.0000     0.0000     0.0000
 56 Q      0.0000     4.0000     4.0000     0.0000     0.0000     0.0000
 57 Q      0.0000     4.0000     4.0000     0.0000     0.0000     0.0000
 58 Q      0.0000     4.0000     4.0000     0.0000     0.0000     0.0000
 59 Q      0.0000     4.0000     4.0000     0.0000     0.0000     0.0000
 60 Q      0.0000     4.0000     4.0000     0.0000     0.0000     0.0000
 61 Q      0.0000     4.0000     4.0000     0.0000     0.0000     0.0000
 62 Q      0.0000     4.0000     4.0000     0.0000     0.0000     0.0000
 63 Q      0.0000     4.0000     4.0000     0.0000     0.0000     0.0000
 64 Q      0.0000     4.0000     4.0000     0.0000     0.0000     0.0000
 65 Q      0.0000     4.0000     4.0000     0.0000     0.0000     0.0000
 66 Q      0.0000     4.0000     4.0000     0.0000     0.0000     0.0000
 67 Q      0.0000     4.0000     4.0000     0.0000     0.0000     0.0000
 68 Q      0.0000     4.0000     4.0000     0.0000     0.0000     0.0000
 69 Q      0.0000     4.0000     4.0000     0.0000     0.0000     0.0000
 70 Q      0.0000     4.0000     4.0000     0.0000     0.0000     0.0000
 71 Q      0.0000     4.0000     4.0000     0.0000     0.0000     0.0000
 72 Q      0.0000     4.0000     4.0000     0.0000     0.0000     0.0000
 73 Q      0.0000     4.0000     4.0000     0.0000     0.0000     0.0000
 74 Q      0.0000     4.0000     4.0000     0.0000     0.0000     0.0000
 75 Q      0.0000     4.0000     4.0000     0.0000     0.0000     0.0000
 76 Q      0.0000     4.0000     4.0000     0.0000     0.0000     0.0000
 77 Q      0.0000     4.0000     4.0000     0.0000     0.0000     0.0000
 78 Q      0.0000     4.0000     4.0000     0.0000     0.0000     0.0000
 79 Q      0.0000     4.0000     4.0000     0.0000     0.0000     0.0000
 80 Q      0.0000     4.0000     4.0000     0.0000     0.0000     0.0000
 81 Q      0.0000     4.0000     4.0000     0.0000     0.0000     0.0000
 82 Q      0.0000     4.0000     4.0000     0.0000     0.0000     0.0000
 83 Q      0.0000     4.0000     4.0000     0.0000     0.0000     0.0000
 84 Q      0.0000     4.0000     4.0000     0.0000     0.0000     0.0000
 85 Q      0.0000     4.0000     4.0000     0.0000     0.0000     0.0000
 86 Q      0.0000     4.0000     4.0000     0.0000     0.0000     0.0000
 87 Q      0.0000     4.0000     4.0000     0.0000     0.0000     0.0000
 88 Q      0.0000     4.0000     4.0000     0.0000     0.0000     0.0000
 89 Q      0.0000     4.0000     4.0000     0.0000     0.0000     0.0000
 90 Q      0.0000     4.0000     4.0000     0.0000     0.0000     0.0000
 91 Q      0.0000     4.0000     4.0000     0.0000     0.0000     0.0000
 92 Q      0.0000     4.0000     4.0000     0.0000     0.0000     0.0000
 93 Q      0.0000     4.0000     4.0000     0.0000     0.0000     0.0000
 94 Q      0.0000     4.0000     4.0000     0.0000     0.0000     0.0000
 95 Q      0.0000     4.0000     4.0000     0.0000     0.0000     0.0000
 96 Q      0.0000     4.0000     4.0000     0.0000     0.0000     0.0000
 97 Q      0.0000     4.0000     4.0000     0.0000     0.0000     0.0000
 98 Q      0.0000     4.0000     4.0000     0.0000     0.0000     0.0000
 99 Q      0.0000     4.0000     4.0000     0.0000     0.0000     0.0000
100 Q      0.0000     4.0000     4.0000     0.0000     0.0000     0.0000
101 Q      0.0000     4.0000     4.0000     0.0000     0.0000     0.0000
102 Q      0.0000     4.0000     4.0000     0.0000     0.0000     0.0000

  Mayer bond orders larger than 0.100000
B(  1-Ti,  2-Ti) :   0.8003 B(  1-Ti,  3-O ) :   0.5276 B(  1-Ti,  4-O ) :   0.4888 
B(  1-Ti,  5-O ) :   0.4888 B(  1-Ti,  8-O ) :   1.4635 B(  1-Ti, 10-O ) :   0.5729 
B(  1-Ti, 12-Ti) :   0.1598 B(  2-Ti,  3-O ) :   0.5274 B(  2-Ti,  6-O ) :   0.4888 
B(  2-Ti,  7-O ) :   0.4888 B(  2-Ti,  9-O ) :   1.4637 B(  2-Ti, 11-O ) :   0.5729 
B(  2-Ti, 12-Ti) :   0.1600 B(  3-O , 12-Ti) :   1.0624 B( 12-Ti, 13-O ) :   0.6494 
B( 12-Ti, 14-O ) :   0.6494 B( 12-Ti, 15-O ) :   0.6493 B( 12-Ti, 16-O ) :   0.6494 
B( 12-Ti, 17-O ) :   0.5851 

-------
TIMINGS
-------

Total SCF time: 0 days 0 hours 0 min 2 sec 

Total time                  ....       2.464 sec
Sum of individual times     ....       1.941 sec  ( 78.8%)

Fock matrix formation       ....       1.038 sec  ( 42.1%)
  XC integration            ....       0.323 sec  ( 31.1% of F)
    Basis function eval.    ....       0.026 sec  (  8.1% of XC)
    Density eval.           ....       0.036 sec  ( 11.3% of XC)
    XC-Functional eval.     ....       0.012 sec  (  3.7% of XC)
    XC-Potential eval.      ....       0.019 sec  (  5.8% of XC)
Diagonalization             ....       0.087 sec  (  3.5%)
Density matrix formation    ....       0.003 sec  (  0.1%)
Population analysis         ....       0.148 sec  (  6.0%)
Initial guess               ....       0.037 sec  (  1.5%)
Orbital Transformation      ....       0.000 sec  (  0.0%)
Orbital Orthonormalization  ....       0.024 sec  (  1.0%)
DIIS solution               ....       0.030 sec  (  1.2%)
Grid generation             ....       0.599 sec  ( 24.3%)

Maximum memory used throughout the entire SCF-calculation: 67.9 MB

-------------------------   --------------------
FINAL SINGLE POINT ENERGY     -7455.752296094041
-------------------------   --------------------


                            ***************************************
                            *     ORCA property calculations      *
                            ***************************************

                                    ---------------------
                                    Active property flags
                                    ---------------------
   (+) Dipole Moment


------------------------------------------------------------------------------
                       ORCA ELECTRIC PROPERTIES CALCULATION
------------------------------------------------------------------------------

Dipole Moment Calculation                       ... on
Quadrupole Moment Calculation                   ... off
Polarizability Calculation                      ... off
GBWName                                         ... orca.gbw
Electron density                                ... orca.scfp
The origin for moment calculation is the CENTER OF MASS  = (-0.000005, -0.000002 -4.627967)

-------------
DIPOLE MOMENT
-------------
                                X             Y             Z
Electronic contribution:     -0.00076      -0.00067      14.75257
Nuclear contribution   :     -0.01062       0.00013   -1624.86599
                        -----------------------------------------
Total Dipole Moment    :     -0.01139      -0.00054   -1610.11342
                        -----------------------------------------
Magnitude (a.u.)       :   1610.11342
Magnitude (Debye)      :   4092.58307



--------------------
Rotational spectrum 
--------------------
 
Rotational constants in cm-1:     0.011829     0.010634     0.007447 
Rotational constants in MHz :   354.626752   318.786914   223.265855 

 Dipole components along the rotational axes: 
x,y,z [a.u.] : -1610.113418     0.003987    -0.002889 
x,y,z [Debye]: -4092.583066     0.010134    -0.007343 

 

Timings for individual modules:

Sum of individual times         ...       15.402 sec (=   0.257 min)
GTO integral calculation        ...       11.394 sec (=   0.190 min)  74.0 %
SCF iterations                  ...        4.008 sec (=   0.067 min)  26.0 %
                             ****ORCA TERMINATED NORMALLY****
TOTAL RUN TIME: 0 days 0 hours 0 minutes 22 seconds 375 msec
