
                                 *****************
                                 * O   R   C   A *
                                 *****************

                                            #,                                       
                                            ###                                      
                                            ####                                     
                                            #####                                    
                                            ######                                   
                                           ########,                                 
                                     ,,################,,,,,                         
                               ,,#################################,,                 
                          ,,##########################################,,             
                       ,#########################################, ''#####,          
                    ,#############################################,,   '####,        
                  ,##################################################,,,,####,       
                ,###########''''           ''''###############################       
              ,#####''   ,,,,##########,,,,          '''####'''          '####       
            ,##' ,,,,###########################,,,                        '##       
           ' ,,###''''                  '''############,,,                           
         ,,##''                                '''############,,,,        ,,,,,,###''
      ,#''                                            '''#######################'''  
     '                                                          ''''####''''         
             ,#######,   #######,   ,#######,      ##                                
            ,#'     '#,  ##    ##  ,#'     '#,    #''#        ######   ,####,        
            ##       ##  ##   ,#'  ##            #'  '#       #        #'  '#        
            ##       ##  #######   ##           ,######,      #####,   #    #        
            '#,     ,#'  ##    ##  '#,     ,#' ,#      #,         ##   #,  ,#        
             '#######'   ##     ##  '#######'  #'      '#     #####' # '####'        



                  #######################################################
                  #                        -***-                        #
                  #          Department of theory and spectroscopy      #
                  #    Directorship and core code : Frank Neese         #
                  #        Max Planck Institute fuer Kohlenforschung    #
                  #                Kaiser Wilhelm Platz 1               #
                  #                 D-45470 Muelheim/Ruhr               #
                  #                      Germany                        #
                  #                                                     #
                  #                  All rights reserved                #
                  #                        -***-                        #
                  #######################################################


                         Program Version 5.0.1 -  RELEASE  -


 With contributions from (in alphabetic order):
   Daniel Aravena         : Magnetic Suceptibility
   Michael Atanasov       : Ab Initio Ligand Field Theory (pilot matlab implementation)
   Alexander A. Auer      : GIAO ZORA, VPT2 properties, NMR spectrum
   Ute Becker             : Parallelization
   Giovanni Bistoni       : ED, misc. LED, open-shell LED, HFLD
   Martin Brehm           : Molecular dynamics
   Dmytro Bykov           : SCF Hessian
   Vijay G. Chilkuri      : MRCI spin determinant printing, contributions to CSF-ICE
   Dipayan Datta          : RHF DLPNO-CCSD density
   Achintya Kumar Dutta   : EOM-CC, STEOM-CC
   Dmitry Ganyushin       : Spin-Orbit,Spin-Spin,Magnetic field MRCI
   Miquel Garcia          : C-PCM and meta-GGA Hessian, CC/C-PCM, Gaussian charge scheme
   Yang Guo               : DLPNO-NEVPT2, F12-NEVPT2, CIM, IAO-localization
   Andreas Hansen         : Spin unrestricted coupled pair/coupled cluster methods
   Benjamin Helmich-Paris : MC-RPA, TRAH-SCF, COSX integrals
   Lee Huntington         : MR-EOM, pCC
   Robert Izsak           : Overlap fitted RIJCOSX, COSX-SCS-MP3, EOM
   Marcus Kettner         : VPT2
   Christian Kollmar      : KDIIS, OOCD, Brueckner-CCSD(T), CCSD density, CASPT2, CASPT2-K
   Simone Kossmann        : Meta GGA functionals, TD-DFT gradient, OOMP2, MP2 Hessian
   Martin Krupicka        : Initial AUTO-CI
   Lucas Lang             : DCDCAS
   Marvin Lechner         : AUTO-CI (C++ implementation), FIC-MRCC
   Dagmar Lenk            : GEPOL surface, SMD
   Dimitrios Liakos       : Extrapolation schemes; Compound Job, initial MDCI parallelization
   Dimitrios Manganas     : Further ROCIS development; embedding schemes
   Dimitrios Pantazis     : SARC Basis sets
   Anastasios Papadopoulos: AUTO-CI, single reference methods and gradients
   Taras Petrenko         : DFT Hessian,TD-DFT gradient, ASA, ECA, R-Raman, ABS, FL, XAS/XES, NRVS
   Peter Pinski           : DLPNO-MP2, DLPNO-MP2 Gradient
   Christoph Reimann      : Effective Core Potentials
   Marius Retegan         : Local ZFS, SOC
   Christoph Riplinger    : Optimizer, TS searches, QM/MM, DLPNO-CCSD(T), (RO)-DLPNO pert. Triples
   Tobias Risthaus        : Range-separated hybrids, TD-DFT gradient, RPA, STAB
   Michael Roemelt        : Original ROCIS implementation
   Masaaki Saitow         : Open-shell DLPNO-CCSD energy and density
   Barbara Sandhoefer     : DKH picture change effects
   Avijit Sen             : IP-ROCIS
   Kantharuban Sivalingam : CASSCF convergence, NEVPT2, FIC-MRCI
   Bernardo de Souza      : ESD, SOC TD-DFT
   Georgi Stoychev        : AutoAux, RI-MP2 NMR, DLPNO-MP2 response
   Willem Van den Heuvel  : Paramagnetic NMR
   Boris Wezisla          : Elementary symmetry handling
   Frank Wennmohs         : Technical directorship


 We gratefully acknowledge several colleagues who have allowed us to
 interface, adapt or use parts of their codes:
   Stefan Grimme, W. Hujo, H. Kruse, P. Pracht,  : VdW corrections, initial TS optimization,
                  C. Bannwarth, S. Ehlert          DFT functionals, gCP, sTDA/sTD-DF
   Ed Valeev, F. Pavosevic, A. Kumar             : LibInt (2-el integral package), F12 methods
   Garnet Chan, S. Sharma, J. Yang, R. Olivares  : DMRG
   Ulf Ekstrom                                   : XCFun DFT Library
   Mihaly Kallay                                 : mrcc  (arbitrary order and MRCC methods)
   Jiri Pittner, Ondrej Demel                    : Mk-CCSD
   Frank Weinhold                                : gennbo (NPA and NBO analysis)
   Christopher J. Cramer and Donald G. Truhlar   : smd solvation model
   Lars Goerigk                                  : TD-DFT with DH, B97 family of functionals
   V. Asgeirsson, H. Jonsson                     : NEB implementation
   FAccTs GmbH                                   : IRC, NEB, NEB-TS, DLPNO-Multilevel, CI-OPT
                                                   MM, QMMM, 2- and 3-layer-ONIOM, Crystal-QMMM,
                                                   LR-CPCM, SF, NACMEs, symmetry and pop. for TD-DFT,
                                                   nearIR, NL-DFT gradient (VV10), updates on ESD,
                                                   ML-optimized integration grids
   S Lehtola, MJT Oliveira, MAL Marques          : LibXC Library
   Liviu Ungur et al                             : ANISO software


 Your calculation uses the libint2 library for the computation of 2-el integrals
 For citations please refer to: http://libint.valeyev.net

 Your ORCA version has been built with support for libXC version: 5.1.0
 For citations please refer to: https://tddft.org/programs/libxc/

 This ORCA versions uses:
   CBLAS   interface :  Fast vector & matrix operations
   LAPACKE interface :  Fast linear algebra routines
   SCALAPACK package :  Parallel linear algebra routines
   Shared memory     :  Shared parallel matrices
   BLAS/LAPACK       :  OpenBLAS 0.3.15  USE64BITINT DYNAMIC_ARCH NO_AFFINITY Prescott SINGLE_THREADED
        Core in use  :  Prescott
   Copyright (c) 2011-2014, The OpenBLAS Project


SCAN-COORDS
================================================================================

----- Orbital basis set information -----
Your calculation utilizes the basis: def2-TZVPP
   F. Weigend and R. Ahlrichs, Phys. Chem. Chem. Phys. 7, 3297 (2005).

----- AuxJ basis set information -----
Your calculation utilizes the auxiliary basis: def2/J
   F. Weigend, Phys. Chem. Chem. Phys. 8, 1057 (2006).

================================================================================
                                        WARNINGS
                       Please study these warnings very carefully!
================================================================================

WARNING: The globally-selected AuxJ basis set is optimized for use with ECPs
         Make sure a suitable alternative is explicitly given all heavy elements (Z>36)

INFO   : the flag for use of the SHARK integral package has been found!

================================================================================
                                       INPUT FILE
================================================================================
NAME = orca.inp
|  1> ! TightSCF SlowConv DIIS
|  2> %maxcore 18000
|  3> %pal
|  4>   nprocs 24
|  5> end
|  6> %pointcharges "orca.bq"
|  7> %method
|  8>   Method DFT
|  9> Functional PBE
| 10>   RI on
| 11>   RunTyp Energy
| 12> end
| 13> %basis
| 14>   Basis "def2-TZVPP"
| 15>   Aux "def2/J"
| 16> end
| 17> %scf
| 18>   HFTyp rks
| 19>   Guess Hueckel
| 20>   AutoStart True
| 21>   SCFMode Direct
| 22>   MaxIter 1000
| 23>   sthresh 1e-6
| 24>   AutoTRAHIter 100
| 25> end
| 26> %coords
| 27>   CTyp xyz
| 28>   Mult 1
| 29>   Units angs
| 30>   Charge -42
| 31>   coords
| 32> O:                      0.00000000000    0.00000000000    0.00000000000
| 33> Ti                      0.00000000000    1.48054676798   -1.27209143018
| 34> Ti                      0.00000000000   -1.48054676798   -1.27209143018
| 35> Ti                      0.00000000000    0.00000000000    1.98192821856
| 36> O                      -0.00000000000    0.00000000000   -2.54418286035
| 37> O                      -1.27209143018    1.48054676798    1.98192821856
| 38> O                       1.27209143018    1.48054676798    1.98192821856
| 39> O                       1.27209143018   -1.48054676798    1.98192821856
| 40> O                      -1.27209143018   -1.48054676798    1.98192821856
| 41> O                      -1.98192821856    1.48054676798   -1.27209143018
| 42> O                       1.98192821856    1.48054676798   -1.27209143018
| 43> O                       1.98192821856   -1.48054676798   -1.27209143018
| 44> O                      -1.98192821856   -1.48054676798   -1.27209143018
| 45> O                       0.00000000000    2.96109353596    0.00000000000
| 46> O                       0.00000000000   -2.96109353596    0.00000000000
| 47> O                      -3.25401964873    0.00000000000    0.70983678838
| 48> O                       3.25401964873    0.00000000000    0.70983678838
| 49> Ti                     -3.25401964873    0.00000000000   -1.27209143018
| 50> Ti                      3.25401964873    0.00000000000   -1.27209143018
| 51> Ti                      0.00000000000    2.96109353596    1.98192821856
| 52> Ti                      0.00000000000   -2.96109353596    1.98192821856
| 53> O                      -0.00000000000    2.96109353596   -2.54418286035
| 54> O                      -0.00000000000   -2.96109353596   -2.54418286035
| 55> O                      -0.00000000000    0.00000000000    3.96385643712
| 56> Ti                     -3.25401964873    1.48054676798    1.98192821856
| 57> Ti                      3.25401964873    1.48054676798    1.98192821856
| 58> Ti                      3.25401964873   -1.48054676798    1.98192821856
| 59> Ti                     -3.25401964873   -1.48054676798    1.98192821856
| 60> O                      -3.25401964873    2.96109353596    0.70983678838
| 61> O                       3.25401964873    2.96109353596    0.70983678838
| 62> O                       3.25401964873   -2.96109353596    0.70983678838
| 63> O                      -3.25401964873   -2.96109353596    0.70983678838
| 64> O                      -3.25401964873    0.00000000000    3.25401964873
| 65> O                       3.25401964873    0.00000000000    3.25401964873
| 66> O                      -3.25401964873    0.00000000000   -3.25401964873
| 67> O                       3.25401964873    0.00000000000   -3.25401964873
| 68> O                      -4.52611107891    1.48054676798   -1.27209143018
| 69> O                       4.52611107891    1.48054676798   -1.27209143018
| 70> O                       4.52611107891   -1.48054676798   -1.27209143018
| 71> O                      -4.52611107891   -1.48054676798   -1.27209143018
| 72> O                      -0.00000000000    2.96109353596    3.96385643712
| 73> O                      -0.00000000000   -2.96109353596    3.96385643712
| 74> O                      -1.27209143018    4.44164030394    1.98192821856
| 75> O                       1.27209143018    4.44164030394    1.98192821856
| 76> O                       1.27209143018   -4.44164030394    1.98192821856
| 77> O                      -1.27209143018   -4.44164030394    1.98192821856
| 78> O                      -3.25401964873    2.96109353596    3.25401964873
| 79> O                       3.25401964873    2.96109353596    3.25401964873
| 80> O                       3.25401964873   -2.96109353596    3.25401964873
| 81> O                      -3.25401964873   -2.96109353596    3.25401964873
| 82> O                      -5.23594786729    1.48054676798    1.98192821856
| 83> O                       5.23594786729    1.48054676798    1.98192821856
| 84> O                       5.23594786729   -1.48054676798    1.98192821856
| 85> O                      -5.23594786729   -1.48054676798    1.98192821856
| 86> Ti>    4.00000000000    0.00000000000    0.00000000000   -4.52611107891
| 87> NewECP
| 88> N_core 0
| 89>   lmax f
| 90>   s 2
| 91>    1      0.860000       9.191690  2
| 92>    2      0.172000       0.008301  2
| 93>   p 2
| 94>    1      0.860000      17.997720  2
| 95>    2      0.172000      -0.032600  2
| 96>   d 2
| 97>    1      1.600000      -9.504310  2
| 98>    2      0.320000      -0.151370  2
| 99>   f 1
|100>    1      1.000000000    0.000000000 2
|101> end
|102> Ti>    4.00000000000   -3.25401964873    2.96109353596   -1.27209143018
|103> NewECP
|104> N_core 0
|105>   lmax f
|106>   s 2
|107>    1      0.860000       9.191690  2
|108>    2      0.172000       0.008301  2
|109>   p 2
|110>    1      0.860000      17.997720  2
|111>    2      0.172000      -0.032600  2
|112>   d 2
|113>    1      1.600000      -9.504310  2
|114>    2      0.320000      -0.151370  2
|115>   f 1
|116>    1      1.000000000    0.000000000 2
|117> end
|118> Ti>    4.00000000000    3.25401964873    2.96109353596   -1.27209143018
|119> NewECP
|120> N_core 0
|121>   lmax f
|122>   s 2
|123>    1      0.860000       9.191690  2
|124>    2      0.172000       0.008301  2
|125>   p 2
|126>    1      0.860000      17.997720  2
|127>    2      0.172000      -0.032600  2
|128>   d 2
|129>    1      1.600000      -9.504310  2
|130>    2      0.320000      -0.151370  2
|131>   f 1
|132>    1      1.000000000    0.000000000 2
|133> end
|134> Ti>    4.00000000000    3.25401964873   -2.96109353596   -1.27209143018
|135> NewECP
|136> N_core 0
|137>   lmax f
|138>   s 2
|139>    1      0.860000       9.191690  2
|140>    2      0.172000       0.008301  2
|141>   p 2
|142>    1      0.860000      17.997720  2
|143>    2      0.172000      -0.032600  2
|144>   d 2
|145>    1      1.600000      -9.504310  2
|146>    2      0.320000      -0.151370  2
|147>   f 1
|148>    1      1.000000000    0.000000000 2
|149> end
|150> Ti>    4.00000000000   -3.25401964873   -2.96109353596   -1.27209143018
|151> NewECP
|152> N_core 0
|153>   lmax f
|154>   s 2
|155>    1      0.860000       9.191690  2
|156>    2      0.172000       0.008301  2
|157>   p 2
|158>    1      0.860000      17.997720  2
|159>    2      0.172000      -0.032600  2
|160>   d 2
|161>    1      1.600000      -9.504310  2
|162>    2      0.320000      -0.151370  2
|163>   f 1
|164>    1      1.000000000    0.000000000 2
|165> end
|166> Ti>    4.00000000000    0.00000000000    4.44164030394   -1.27209143018
|167> NewECP
|168> N_core 0
|169>   lmax f
|170>   s 2
|171>    1      0.860000       9.191690  2
|172>    2      0.172000       0.008301  2
|173>   p 2
|174>    1      0.860000      17.997720  2
|175>    2      0.172000      -0.032600  2
|176>   d 2
|177>    1      1.600000      -9.504310  2
|178>    2      0.320000      -0.151370  2
|179>   f 1
|180>    1      1.000000000    0.000000000 2
|181> end
|182> Ti>    4.00000000000    0.00000000000   -4.44164030394   -1.27209143018
|183> NewECP
|184> N_core 0
|185>   lmax f
|186>   s 2
|187>    1      0.860000       9.191690  2
|188>    2      0.172000       0.008301  2
|189>   p 2
|190>    1      0.860000      17.997720  2
|191>    2      0.172000      -0.032600  2
|192>   d 2
|193>    1      1.600000      -9.504310  2
|194>    2      0.320000      -0.151370  2
|195>   f 1
|196>    1      1.000000000    0.000000000 2
|197> end
|198> Ti>    4.00000000000    0.00000000000    2.96109353596   -4.52611107891
|199> NewECP
|200> N_core 0
|201>   lmax f
|202>   s 2
|203>    1      0.860000       9.191690  2
|204>    2      0.172000       0.008301  2
|205>   p 2
|206>    1      0.860000      17.997720  2
|207>    2      0.172000      -0.032600  2
|208>   d 2
|209>    1      1.600000      -9.504310  2
|210>    2      0.320000      -0.151370  2
|211>   f 1
|212>    1      1.000000000    0.000000000 2
|213> end
|214> Ti>    4.00000000000    0.00000000000   -2.96109353596   -4.52611107891
|215> NewECP
|216> N_core 0
|217>   lmax f
|218>   s 2
|219>    1      0.860000       9.191690  2
|220>    2      0.172000       0.008301  2
|221>   p 2
|222>    1      0.860000      17.997720  2
|223>    2      0.172000      -0.032600  2
|224>   d 2
|225>    1      1.600000      -9.504310  2
|226>    2      0.320000      -0.151370  2
|227>   f 1
|228>    1      1.000000000    0.000000000 2
|229> end
|230> Ti>    4.00000000000    0.00000000000    1.48054676798    5.23594786729
|231> NewECP
|232> N_core 0
|233>   lmax f
|234>   s 2
|235>    1      0.860000       9.191690  2
|236>    2      0.172000       0.008301  2
|237>   p 2
|238>    1      0.860000      17.997720  2
|239>    2      0.172000      -0.032600  2
|240>   d 2
|241>    1      1.600000      -9.504310  2
|242>    2      0.320000      -0.151370  2
|243>   f 1
|244>    1      1.000000000    0.000000000 2
|245> end
|246> Ti>    4.00000000000    0.00000000000   -1.48054676798    5.23594786729
|247> NewECP
|248> N_core 0
|249>   lmax f
|250>   s 2
|251>    1      0.860000       9.191690  2
|252>    2      0.172000       0.008301  2
|253>   p 2
|254>    1      0.860000      17.997720  2
|255>    2      0.172000      -0.032600  2
|256>   d 2
|257>    1      1.600000      -9.504310  2
|258>    2      0.320000      -0.151370  2
|259>   f 1
|260>    1      1.000000000    0.000000000 2
|261> end
|262> Ti>    4.00000000000   -3.25401964873    1.48054676798   -4.52611107891
|263> NewECP
|264> N_core 0
|265>   lmax f
|266>   s 2
|267>    1      0.860000       9.191690  2
|268>    2      0.172000       0.008301  2
|269>   p 2
|270>    1      0.860000      17.997720  2
|271>    2      0.172000      -0.032600  2
|272>   d 2
|273>    1      1.600000      -9.504310  2
|274>    2      0.320000      -0.151370  2
|275>   f 1
|276>    1      1.000000000    0.000000000 2
|277> end
|278> Ti>    4.00000000000    3.25401964873    1.48054676798   -4.52611107891
|279> NewECP
|280> N_core 0
|281>   lmax f
|282>   s 2
|283>    1      0.860000       9.191690  2
|284>    2      0.172000       0.008301  2
|285>   p 2
|286>    1      0.860000      17.997720  2
|287>    2      0.172000      -0.032600  2
|288>   d 2
|289>    1      1.600000      -9.504310  2
|290>    2      0.320000      -0.151370  2
|291>   f 1
|292>    1      1.000000000    0.000000000 2
|293> end
|294> Ti>    4.00000000000    3.25401964873   -1.48054676798   -4.52611107891
|295> NewECP
|296> N_core 0
|297>   lmax f
|298>   s 2
|299>    1      0.860000       9.191690  2
|300>    2      0.172000       0.008301  2
|301>   p 2
|302>    1      0.860000      17.997720  2
|303>    2      0.172000      -0.032600  2
|304>   d 2
|305>    1      1.600000      -9.504310  2
|306>    2      0.320000      -0.151370  2
|307>   f 1
|308>    1      1.000000000    0.000000000 2
|309> end
|310> Ti>    4.00000000000   -3.25401964873   -1.48054676798   -4.52611107891
|311> NewECP
|312> N_core 0
|313>   lmax f
|314>   s 2
|315>    1      0.860000       9.191690  2
|316>    2      0.172000       0.008301  2
|317>   p 2
|318>    1      0.860000      17.997720  2
|319>    2      0.172000      -0.032600  2
|320>   d 2
|321>    1      1.600000      -9.504310  2
|322>    2      0.320000      -0.151370  2
|323>   f 1
|324>    1      1.000000000    0.000000000 2
|325> end
|326> Ti>    4.00000000000   -3.25401964873    4.44164030394    1.98192821856
|327> NewECP
|328> N_core 0
|329>   lmax f
|330>   s 2
|331>    1      0.860000       9.191690  2
|332>    2      0.172000       0.008301  2
|333>   p 2
|334>    1      0.860000      17.997720  2
|335>    2      0.172000      -0.032600  2
|336>   d 2
|337>    1      1.600000      -9.504310  2
|338>    2      0.320000      -0.151370  2
|339>   f 1
|340>    1      1.000000000    0.000000000 2
|341> end
|342> Ti>    4.00000000000    3.25401964873    4.44164030394    1.98192821856
|343> NewECP
|344> N_core 0
|345>   lmax f
|346>   s 2
|347>    1      0.860000       9.191690  2
|348>    2      0.172000       0.008301  2
|349>   p 2
|350>    1      0.860000      17.997720  2
|351>    2      0.172000      -0.032600  2
|352>   d 2
|353>    1      1.600000      -9.504310  2
|354>    2      0.320000      -0.151370  2
|355>   f 1
|356>    1      1.000000000    0.000000000 2
|357> end
|358> Ti>    4.00000000000    3.25401964873   -4.44164030394    1.98192821856
|359> NewECP
|360> N_core 0
|361>   lmax f
|362>   s 2
|363>    1      0.860000       9.191690  2
|364>    2      0.172000       0.008301  2
|365>   p 2
|366>    1      0.860000      17.997720  2
|367>    2      0.172000      -0.032600  2
|368>   d 2
|369>    1      1.600000      -9.504310  2
|370>    2      0.320000      -0.151370  2
|371>   f 1
|372>    1      1.000000000    0.000000000 2
|373> end
|374> Ti>    4.00000000000   -3.25401964873   -4.44164030394    1.98192821856
|375> NewECP
|376> N_core 0
|377>   lmax f
|378>   s 2
|379>    1      0.860000       9.191690  2
|380>    2      0.172000       0.008301  2
|381>   p 2
|382>    1      0.860000      17.997720  2
|383>    2      0.172000      -0.032600  2
|384>   d 2
|385>    1      1.600000      -9.504310  2
|386>    2      0.320000      -0.151370  2
|387>   f 1
|388>    1      1.000000000    0.000000000 2
|389> end
|390> Ti>    4.00000000000   -3.25401964873    0.00000000000    5.23594786729
|391> NewECP
|392> N_core 0
|393>   lmax f
|394>   s 2
|395>    1      0.860000       9.191690  2
|396>    2      0.172000       0.008301  2
|397>   p 2
|398>    1      0.860000      17.997720  2
|399>    2      0.172000      -0.032600  2
|400>   d 2
|401>    1      1.600000      -9.504310  2
|402>    2      0.320000      -0.151370  2
|403>   f 1
|404>    1      1.000000000    0.000000000 2
|405> end
|406> Ti>    4.00000000000    3.25401964873    0.00000000000    5.23594786729
|407> NewECP
|408> N_core 0
|409>   lmax f
|410>   s 2
|411>    1      0.860000       9.191690  2
|412>    2      0.172000       0.008301  2
|413>   p 2
|414>    1      0.860000      17.997720  2
|415>    2      0.172000      -0.032600  2
|416>   d 2
|417>    1      1.600000      -9.504310  2
|418>    2      0.320000      -0.151370  2
|419>   f 1
|420>    1      1.000000000    0.000000000 2
|421> end
|422> Ti>    4.00000000000    0.00000000000    5.92218707193    1.98192821856
|423> NewECP
|424> N_core 0
|425>   lmax f
|426>   s 2
|427>    1      0.860000       9.191690  2
|428>    2      0.172000       0.008301  2
|429>   p 2
|430>    1      0.860000      17.997720  2
|431>    2      0.172000      -0.032600  2
|432>   d 2
|433>    1      1.600000      -9.504310  2
|434>    2      0.320000      -0.151370  2
|435>   f 1
|436>    1      1.000000000    0.000000000 2
|437> end
|438> Ti>    4.00000000000    0.00000000000   -5.92218707193    1.98192821856
|439> NewECP
|440> N_core 0
|441>   lmax f
|442>   s 2
|443>    1      0.860000       9.191690  2
|444>    2      0.172000       0.008301  2
|445>   p 2
|446>    1      0.860000      17.997720  2
|447>    2      0.172000      -0.032600  2
|448>   d 2
|449>    1      1.600000      -9.504310  2
|450>    2      0.320000      -0.151370  2
|451>   f 1
|452>    1      1.000000000    0.000000000 2
|453> end
|454> Ti>    4.00000000000   -6.50803929747    1.48054676798   -1.27209143018
|455> NewECP
|456> N_core 0
|457>   lmax f
|458>   s 2
|459>    1      0.860000       9.191690  2
|460>    2      0.172000       0.008301  2
|461>   p 2
|462>    1      0.860000      17.997720  2
|463>    2      0.172000      -0.032600  2
|464>   d 2
|465>    1      1.600000      -9.504310  2
|466>    2      0.320000      -0.151370  2
|467>   f 1
|468>    1      1.000000000    0.000000000 2
|469> end
|470> Ti>    4.00000000000    6.50803929747    1.48054676798   -1.27209143018
|471> NewECP
|472> N_core 0
|473>   lmax f
|474>   s 2
|475>    1      0.860000       9.191690  2
|476>    2      0.172000       0.008301  2
|477>   p 2
|478>    1      0.860000      17.997720  2
|479>    2      0.172000      -0.032600  2
|480>   d 2
|481>    1      1.600000      -9.504310  2
|482>    2      0.320000      -0.151370  2
|483>   f 1
|484>    1      1.000000000    0.000000000 2
|485> end
|486> Ti>    4.00000000000    6.50803929747   -1.48054676798   -1.27209143018
|487> NewECP
|488> N_core 0
|489>   lmax f
|490>   s 2
|491>    1      0.860000       9.191690  2
|492>    2      0.172000       0.008301  2
|493>   p 2
|494>    1      0.860000      17.997720  2
|495>    2      0.172000      -0.032600  2
|496>   d 2
|497>    1      1.600000      -9.504310  2
|498>    2      0.320000      -0.151370  2
|499>   f 1
|500>    1      1.000000000    0.000000000 2
|501> end
|502> Ti>    4.00000000000   -6.50803929747   -1.48054676798   -1.27209143018
|503> NewECP
|504> N_core 0
|505>   lmax f
|506>   s 2
|507>    1      0.860000       9.191690  2
|508>    2      0.172000       0.008301  2
|509>   p 2
|510>    1      0.860000      17.997720  2
|511>    2      0.172000      -0.032600  2
|512>   d 2
|513>    1      1.600000      -9.504310  2
|514>    2      0.320000      -0.151370  2
|515>   f 1
|516>    1      1.000000000    0.000000000 2
|517> end
|518> Ti>    4.00000000000   -6.50803929747    0.00000000000    1.98192821856
|519> NewECP
|520> N_core 0
|521>   lmax f
|522>   s 2
|523>    1      0.860000       9.191690  2
|524>    2      0.172000       0.008301  2
|525>   p 2
|526>    1      0.860000      17.997720  2
|527>    2      0.172000      -0.032600  2
|528>   d 2
|529>    1      1.600000      -9.504310  2
|530>    2      0.320000      -0.151370  2
|531>   f 1
|532>    1      1.000000000    0.000000000 2
|533> end
|534> Ti>    4.00000000000    6.50803929747    0.00000000000    1.98192821856
|535> NewECP
|536> N_core 0
|537>   lmax f
|538>   s 2
|539>    1      0.860000       9.191690  2
|540>    2      0.172000       0.008301  2
|541>   p 2
|542>    1      0.860000      17.997720  2
|543>    2      0.172000      -0.032600  2
|544>   d 2
|545>    1      1.600000      -9.504310  2
|546>    2      0.320000      -0.151370  2
|547>   f 1
|548>    1      1.000000000    0.000000000 2
|549> end
|550> Ti>    4.00000000000   -3.25401964873    2.96109353596    5.23594786729
|551> NewECP
|552> N_core 0
|553>   lmax f
|554>   s 2
|555>    1      0.860000       9.191690  2
|556>    2      0.172000       0.008301  2
|557>   p 2
|558>    1      0.860000      17.997720  2
|559>    2      0.172000      -0.032600  2
|560>   d 2
|561>    1      1.600000      -9.504310  2
|562>    2      0.320000      -0.151370  2
|563>   f 1
|564>    1      1.000000000    0.000000000 2
|565> end
|566> Ti>    4.00000000000    3.25401964873    2.96109353596    5.23594786729
|567> NewECP
|568> N_core 0
|569>   lmax f
|570>   s 2
|571>    1      0.860000       9.191690  2
|572>    2      0.172000       0.008301  2
|573>   p 2
|574>    1      0.860000      17.997720  2
|575>    2      0.172000      -0.032600  2
|576>   d 2
|577>    1      1.600000      -9.504310  2
|578>    2      0.320000      -0.151370  2
|579>   f 1
|580>    1      1.000000000    0.000000000 2
|581> end
|582> Ti>    4.00000000000    3.25401964873   -2.96109353596    5.23594786729
|583> NewECP
|584> N_core 0
|585>   lmax f
|586>   s 2
|587>    1      0.860000       9.191690  2
|588>    2      0.172000       0.008301  2
|589>   p 2
|590>    1      0.860000      17.997720  2
|591>    2      0.172000      -0.032600  2
|592>   d 2
|593>    1      1.600000      -9.504310  2
|594>    2      0.320000      -0.151370  2
|595>   f 1
|596>    1      1.000000000    0.000000000 2
|597> end
|598> Ti>    4.00000000000   -3.25401964873   -2.96109353596    5.23594786729
|599> NewECP
|600> N_core 0
|601>   lmax f
|602>   s 2
|603>    1      0.860000       9.191690  2
|604>    2      0.172000       0.008301  2
|605>   p 2
|606>    1      0.860000      17.997720  2
|607>    2      0.172000      -0.032600  2
|608>   d 2
|609>    1      1.600000      -9.504310  2
|610>    2      0.320000      -0.151370  2
|611>   f 1
|612>    1      1.000000000    0.000000000 2
|613> end
|614> Ti>    4.00000000000    0.00000000000    4.44164030394    5.23594786729
|615> NewECP
|616> N_core 0
|617>   lmax f
|618>   s 2
|619>    1      0.860000       9.191690  2
|620>    2      0.172000       0.008301  2
|621>   p 2
|622>    1      0.860000      17.997720  2
|623>    2      0.172000      -0.032600  2
|624>   d 2
|625>    1      1.600000      -9.504310  2
|626>    2      0.320000      -0.151370  2
|627>   f 1
|628>    1      1.000000000    0.000000000 2
|629> end
|630> Ti>    4.00000000000    0.00000000000   -4.44164030394    5.23594786729
|631> NewECP
|632> N_core 0
|633>   lmax f
|634>   s 2
|635>    1      0.860000       9.191690  2
|636>    2      0.172000       0.008301  2
|637>   p 2
|638>    1      0.860000      17.997720  2
|639>    2      0.172000      -0.032600  2
|640>   d 2
|641>    1      1.600000      -9.504310  2
|642>    2      0.320000      -0.151370  2
|643>   f 1
|644>    1      1.000000000    0.000000000 2
|645> end
|646> Ti>    4.00000000000   -3.25401964873    5.92218707193   -1.27209143018
|647> NewECP
|648> N_core 0
|649>   lmax f
|650>   s 2
|651>    1      0.860000       9.191690  2
|652>    2      0.172000       0.008301  2
|653>   p 2
|654>    1      0.860000      17.997720  2
|655>    2      0.172000      -0.032600  2
|656>   d 2
|657>    1      1.600000      -9.504310  2
|658>    2      0.320000      -0.151370  2
|659>   f 1
|660>    1      1.000000000    0.000000000 2
|661> end
|662> Ti>    4.00000000000    3.25401964873    5.92218707193   -1.27209143018
|663> NewECP
|664> N_core 0
|665>   lmax f
|666>   s 2
|667>    1      0.860000       9.191690  2
|668>    2      0.172000       0.008301  2
|669>   p 2
|670>    1      0.860000      17.997720  2
|671>    2      0.172000      -0.032600  2
|672>   d 2
|673>    1      1.600000      -9.504310  2
|674>    2      0.320000      -0.151370  2
|675>   f 1
|676>    1      1.000000000    0.000000000 2
|677> end
|678> Ti>    4.00000000000    3.25401964873   -5.92218707193   -1.27209143018
|679> NewECP
|680> N_core 0
|681>   lmax f
|682>   s 2
|683>    1      0.860000       9.191690  2
|684>    2      0.172000       0.008301  2
|685>   p 2
|686>    1      0.860000      17.997720  2
|687>    2      0.172000      -0.032600  2
|688>   d 2
|689>    1      1.600000      -9.504310  2
|690>    2      0.320000      -0.151370  2
|691>   f 1
|692>    1      1.000000000    0.000000000 2
|693> end
|694> Ti>    4.00000000000   -3.25401964873   -5.92218707193   -1.27209143018
|695> NewECP
|696> N_core 0
|697>   lmax f
|698>   s 2
|699>    1      0.860000       9.191690  2
|700>    2      0.172000       0.008301  2
|701>   p 2
|702>    1      0.860000      17.997720  2
|703>    2      0.172000      -0.032600  2
|704>   d 2
|705>    1      1.600000      -9.504310  2
|706>    2      0.320000      -0.151370  2
|707>   f 1
|708>    1      1.000000000    0.000000000 2
|709> end
|710> Ti>    4.00000000000   -3.25401964873    4.44164030394   -4.52611107891
|711> NewECP
|712> N_core 0
|713>   lmax f
|714>   s 2
|715>    1      0.860000       9.191690  2
|716>    2      0.172000       0.008301  2
|717>   p 2
|718>    1      0.860000      17.997720  2
|719>    2      0.172000      -0.032600  2
|720>   d 2
|721>    1      1.600000      -9.504310  2
|722>    2      0.320000      -0.151370  2
|723>   f 1
|724>    1      1.000000000    0.000000000 2
|725> end
|726> Ti>    4.00000000000    3.25401964873    4.44164030394   -4.52611107891
|727> NewECP
|728> N_core 0
|729>   lmax f
|730>   s 2
|731>    1      0.860000       9.191690  2
|732>    2      0.172000       0.008301  2
|733>   p 2
|734>    1      0.860000      17.997720  2
|735>    2      0.172000      -0.032600  2
|736>   d 2
|737>    1      1.600000      -9.504310  2
|738>    2      0.320000      -0.151370  2
|739>   f 1
|740>    1      1.000000000    0.000000000 2
|741> end
|742> Ti>    4.00000000000    3.25401964873   -4.44164030394   -4.52611107891
|743> NewECP
|744> N_core 0
|745>   lmax f
|746>   s 2
|747>    1      0.860000       9.191690  2
|748>    2      0.172000       0.008301  2
|749>   p 2
|750>    1      0.860000      17.997720  2
|751>    2      0.172000      -0.032600  2
|752>   d 2
|753>    1      1.600000      -9.504310  2
|754>    2      0.320000      -0.151370  2
|755>   f 1
|756>    1      1.000000000    0.000000000 2
|757> end
|758> Ti>    4.00000000000   -3.25401964873   -4.44164030394   -4.52611107891
|759> NewECP
|760> N_core 0
|761>   lmax f
|762>   s 2
|763>    1      0.860000       9.191690  2
|764>    2      0.172000       0.008301  2
|765>   p 2
|766>    1      0.860000      17.997720  2
|767>    2      0.172000      -0.032600  2
|768>   d 2
|769>    1      1.600000      -9.504310  2
|770>    2      0.320000      -0.151370  2
|771>   f 1
|772>    1      1.000000000    0.000000000 2
|773> end
|774> Ti>    4.00000000000   -6.50803929747    2.96109353596    1.98192821856
|775> NewECP
|776> N_core 0
|777>   lmax f
|778>   s 2
|779>    1      0.860000       9.191690  2
|780>    2      0.172000       0.008301  2
|781>   p 2
|782>    1      0.860000      17.997720  2
|783>    2      0.172000      -0.032600  2
|784>   d 2
|785>    1      1.600000      -9.504310  2
|786>    2      0.320000      -0.151370  2
|787>   f 1
|788>    1      1.000000000    0.000000000 2
|789> end
|790> Ti>    4.00000000000    6.50803929747    2.96109353596    1.98192821856
|791> NewECP
|792> N_core 0
|793>   lmax f
|794>   s 2
|795>    1      0.860000       9.191690  2
|796>    2      0.172000       0.008301  2
|797>   p 2
|798>    1      0.860000      17.997720  2
|799>    2      0.172000      -0.032600  2
|800>   d 2
|801>    1      1.600000      -9.504310  2
|802>    2      0.320000      -0.151370  2
|803>   f 1
|804>    1      1.000000000    0.000000000 2
|805> end
|806> Ti>    4.00000000000    6.50803929747   -2.96109353596    1.98192821856
|807> NewECP
|808> N_core 0
|809>   lmax f
|810>   s 2
|811>    1      0.860000       9.191690  2
|812>    2      0.172000       0.008301  2
|813>   p 2
|814>    1      0.860000      17.997720  2
|815>    2      0.172000      -0.032600  2
|816>   d 2
|817>    1      1.600000      -9.504310  2
|818>    2      0.320000      -0.151370  2
|819>   f 1
|820>    1      1.000000000    0.000000000 2
|821> end
|822> Ti>    4.00000000000   -6.50803929747   -2.96109353596    1.98192821856
|823> NewECP
|824> N_core 0
|825>   lmax f
|826>   s 2
|827>    1      0.860000       9.191690  2
|828>    2      0.172000       0.008301  2
|829>   p 2
|830>    1      0.860000      17.997720  2
|831>    2      0.172000      -0.032600  2
|832>   d 2
|833>    1      1.600000      -9.504310  2
|834>    2      0.320000      -0.151370  2
|835>   f 1
|836>    1      1.000000000    0.000000000 2
|837> end
|838> Ti>    4.00000000000    0.00000000000    5.92218707193   -4.52611107891
|839> NewECP
|840> N_core 0
|841>   lmax f
|842>   s 2
|843>    1      0.860000       9.191690  2
|844>    2      0.172000       0.008301  2
|845>   p 2
|846>    1      0.860000      17.997720  2
|847>    2      0.172000      -0.032600  2
|848>   d 2
|849>    1      1.600000      -9.504310  2
|850>    2      0.320000      -0.151370  2
|851>   f 1
|852>    1      1.000000000    0.000000000 2
|853> end
|854> Ti>    4.00000000000    0.00000000000   -5.92218707193   -4.52611107891
|855> NewECP
|856> N_core 0
|857>   lmax f
|858>   s 2
|859>    1      0.860000       9.191690  2
|860>    2      0.172000       0.008301  2
|861>   p 2
|862>    1      0.860000      17.997720  2
|863>    2      0.172000      -0.032600  2
|864>   d 2
|865>    1      1.600000      -9.504310  2
|866>    2      0.320000      -0.151370  2
|867>   f 1
|868>    1      1.000000000    0.000000000 2
|869> end
|870> Ti>    4.00000000000    0.00000000000    7.40273383991   -1.27209143018
|871> NewECP
|872> N_core 0
|873>   lmax f
|874>   s 2
|875>    1      0.860000       9.191690  2
|876>    2      0.172000       0.008301  2
|877>   p 2
|878>    1      0.860000      17.997720  2
|879>    2      0.172000      -0.032600  2
|880>   d 2
|881>    1      1.600000      -9.504310  2
|882>    2      0.320000      -0.151370  2
|883>   f 1
|884>    1      1.000000000    0.000000000 2
|885> end
|886> Ti>    4.00000000000    0.00000000000   -7.40273383991   -1.27209143018
|887> NewECP
|888> N_core 0
|889>   lmax f
|890>   s 2
|891>    1      0.860000       9.191690  2
|892>    2      0.172000       0.008301  2
|893>   p 2
|894>    1      0.860000      17.997720  2
|895>    2      0.172000      -0.032600  2
|896>   d 2
|897>    1      1.600000      -9.504310  2
|898>    2      0.320000      -0.151370  2
|899>   f 1
|900>    1      1.000000000    0.000000000 2
|901> end
|902> Ti>    4.00000000000    0.00000000000    1.48054676798   -7.78013072764
|903> NewECP
|904> N_core 0
|905>   lmax f
|906>   s 2
|907>    1      0.860000       9.191690  2
|908>    2      0.172000       0.008301  2
|909>   p 2
|910>    1      0.860000      17.997720  2
|911>    2      0.172000      -0.032600  2
|912>   d 2
|913>    1      1.600000      -9.504310  2
|914>    2      0.320000      -0.151370  2
|915>   f 1
|916>    1      1.000000000    0.000000000 2
|917> end
|918> Ti>    4.00000000000    0.00000000000   -1.48054676798   -7.78013072764
|919> NewECP
|920> N_core 0
|921>   lmax f
|922>   s 2
|923>    1      0.860000       9.191690  2
|924>    2      0.172000       0.008301  2
|925>   p 2
|926>    1      0.860000      17.997720  2
|927>    2      0.172000      -0.032600  2
|928>   d 2
|929>    1      1.600000      -9.504310  2
|930>    2      0.320000      -0.151370  2
|931>   f 1
|932>    1      1.000000000    0.000000000 2
|933> end
|934> Ti>    4.00000000000   -6.50803929747    0.00000000000   -4.52611107891
|935> NewECP
|936> N_core 0
|937>   lmax f
|938>   s 2
|939>    1      0.860000       9.191690  2
|940>    2      0.172000       0.008301  2
|941>   p 2
|942>    1      0.860000      17.997720  2
|943>    2      0.172000      -0.032600  2
|944>   d 2
|945>    1      1.600000      -9.504310  2
|946>    2      0.320000      -0.151370  2
|947>   f 1
|948>    1      1.000000000    0.000000000 2
|949> end
|950> Ti>    4.00000000000    6.50803929747    0.00000000000   -4.52611107891
|951> NewECP
|952> N_core 0
|953>   lmax f
|954>   s 2
|955>    1      0.860000       9.191690  2
|956>    2      0.172000       0.008301  2
|957>   p 2
|958>    1      0.860000      17.997720  2
|959>    2      0.172000      -0.032600  2
|960>   d 2
|961>    1      1.600000      -9.504310  2
|962>    2      0.320000      -0.151370  2
|963>   f 1
|964>    1      1.000000000    0.000000000 2
|965> end
|966> Ti>    4.00000000000   -6.50803929747    4.44164030394   -1.27209143018
|967> NewECP
|968> N_core 0
|969>   lmax f
|970>   s 2
|971>    1      0.860000       9.191690  2
|972>    2      0.172000       0.008301  2
|973>   p 2
|974>    1      0.860000      17.997720  2
|975>    2      0.172000      -0.032600  2
|976>   d 2
|977>    1      1.600000      -9.504310  2
|978>    2      0.320000      -0.151370  2
|979>   f 1
|980>    1      1.000000000    0.000000000 2
|981> end
|982> Ti>    4.00000000000    6.50803929747    4.44164030394   -1.27209143018
|983> NewECP
|984> N_core 0
|985>   lmax f
|986>   s 2
|987>    1      0.860000       9.191690  2
|988>    2      0.172000       0.008301  2
|989>   p 2
|990>    1      0.860000      17.997720  2
|991>    2      0.172000      -0.032600  2
|992>   d 2
|993>    1      1.600000      -9.504310  2
|994>    2      0.320000      -0.151370  2
|995>   f 1
|996>    1      1.000000000    0.000000000 2
|997> end
|998> Ti>    4.00000000000    6.50803929747   -4.44164030394   -1.27209143018
|999> NewECP
|1000> N_core 0
|1001>   lmax f
|1002>   s 2
|1003>    1      0.860000       9.191690  2
|1004>    2      0.172000       0.008301  2
|1005>   p 2
|1006>    1      0.860000      17.997720  2
|1007>    2      0.172000      -0.032600  2
|1008>   d 2
|1009>    1      1.600000      -9.504310  2
|1010>    2      0.320000      -0.151370  2
|1011>   f 1
|1012>    1      1.000000000    0.000000000 2
|1013> end
|1014> Ti>    4.00000000000   -6.50803929747   -4.44164030394   -1.27209143018
|1015> NewECP
|1016> N_core 0
|1017>   lmax f
|1018>   s 2
|1019>    1      0.860000       9.191690  2
|1020>    2      0.172000       0.008301  2
|1021>   p 2
|1022>    1      0.860000      17.997720  2
|1023>    2      0.172000      -0.032600  2
|1024>   d 2
|1025>    1      1.600000      -9.504310  2
|1026>    2      0.320000      -0.151370  2
|1027>   f 1
|1028>    1      1.000000000    0.000000000 2
|1029> end
|1030> Ti>    4.00000000000   -3.25401964873    7.40273383991    1.98192821856
|1031> NewECP
|1032> N_core 0
|1033>   lmax f
|1034>   s 2
|1035>    1      0.860000       9.191690  2
|1036>    2      0.172000       0.008301  2
|1037>   p 2
|1038>    1      0.860000      17.997720  2
|1039>    2      0.172000      -0.032600  2
|1040>   d 2
|1041>    1      1.600000      -9.504310  2
|1042>    2      0.320000      -0.151370  2
|1043>   f 1
|1044>    1      1.000000000    0.000000000 2
|1045> end
|1046> Ti>    4.00000000000    3.25401964873    7.40273383991    1.98192821856
|1047> NewECP
|1048> N_core 0
|1049>   lmax f
|1050>   s 2
|1051>    1      0.860000       9.191690  2
|1052>    2      0.172000       0.008301  2
|1053>   p 2
|1054>    1      0.860000      17.997720  2
|1055>    2      0.172000      -0.032600  2
|1056>   d 2
|1057>    1      1.600000      -9.504310  2
|1058>    2      0.320000      -0.151370  2
|1059>   f 1
|1060>    1      1.000000000    0.000000000 2
|1061> end
|1062> Ti>    4.00000000000    3.25401964873   -7.40273383991    1.98192821856
|1063> NewECP
|1064> N_core 0
|1065>   lmax f
|1066>   s 2
|1067>    1      0.860000       9.191690  2
|1068>    2      0.172000       0.008301  2
|1069>   p 2
|1070>    1      0.860000      17.997720  2
|1071>    2      0.172000      -0.032600  2
|1072>   d 2
|1073>    1      1.600000      -9.504310  2
|1074>    2      0.320000      -0.151370  2
|1075>   f 1
|1076>    1      1.000000000    0.000000000 2
|1077> end
|1078> Ti>    4.00000000000   -3.25401964873   -7.40273383991    1.98192821856
|1079> NewECP
|1080> N_core 0
|1081>   lmax f
|1082>   s 2
|1083>    1      0.860000       9.191690  2
|1084>    2      0.172000       0.008301  2
|1085>   p 2
|1086>    1      0.860000      17.997720  2
|1087>    2      0.172000      -0.032600  2
|1088>   d 2
|1089>    1      1.600000      -9.504310  2
|1090>    2      0.320000      -0.151370  2
|1091>   f 1
|1092>    1      1.000000000    0.000000000 2
|1093> end
|1094> Ti>    4.00000000000   -3.25401964873    0.00000000000   -7.78013072764
|1095> NewECP
|1096> N_core 0
|1097>   lmax f
|1098>   s 2
|1099>    1      0.860000       9.191690  2
|1100>    2      0.172000       0.008301  2
|1101>   p 2
|1102>    1      0.860000      17.997720  2
|1103>    2      0.172000      -0.032600  2
|1104>   d 2
|1105>    1      1.600000      -9.504310  2
|1106>    2      0.320000      -0.151370  2
|1107>   f 1
|1108>    1      1.000000000    0.000000000 2
|1109> end
|1110> Ti>    4.00000000000    3.25401964873    0.00000000000   -7.78013072764
|1111> NewECP
|1112> N_core 0
|1113>   lmax f
|1114>   s 2
|1115>    1      0.860000       9.191690  2
|1116>    2      0.172000       0.008301  2
|1117>   p 2
|1118>    1      0.860000      17.997720  2
|1119>    2      0.172000      -0.032600  2
|1120>   d 2
|1121>    1      1.600000      -9.504310  2
|1122>    2      0.320000      -0.151370  2
|1123>   f 1
|1124>    1      1.000000000    0.000000000 2
|1125> end
|1126> Ti>    4.00000000000   -6.50803929747    2.96109353596   -4.52611107891
|1127> NewECP
|1128> N_core 0
|1129>   lmax f
|1130>   s 2
|1131>    1      0.860000       9.191690  2
|1132>    2      0.172000       0.008301  2
|1133>   p 2
|1134>    1      0.860000      17.997720  2
|1135>    2      0.172000      -0.032600  2
|1136>   d 2
|1137>    1      1.600000      -9.504310  2
|1138>    2      0.320000      -0.151370  2
|1139>   f 1
|1140>    1      1.000000000    0.000000000 2
|1141> end
|1142> Ti>    4.00000000000    6.50803929747    2.96109353596   -4.52611107891
|1143> NewECP
|1144> N_core 0
|1145>   lmax f
|1146>   s 2
|1147>    1      0.860000       9.191690  2
|1148>    2      0.172000       0.008301  2
|1149>   p 2
|1150>    1      0.860000      17.997720  2
|1151>    2      0.172000      -0.032600  2
|1152>   d 2
|1153>    1      1.600000      -9.504310  2
|1154>    2      0.320000      -0.151370  2
|1155>   f 1
|1156>    1      1.000000000    0.000000000 2
|1157> end
|1158> Ti>    4.00000000000    6.50803929747   -2.96109353596   -4.52611107891
|1159> NewECP
|1160> N_core 0
|1161>   lmax f
|1162>   s 2
|1163>    1      0.860000       9.191690  2
|1164>    2      0.172000       0.008301  2
|1165>   p 2
|1166>    1      0.860000      17.997720  2
|1167>    2      0.172000      -0.032600  2
|1168>   d 2
|1169>    1      1.600000      -9.504310  2
|1170>    2      0.320000      -0.151370  2
|1171>   f 1
|1172>    1      1.000000000    0.000000000 2
|1173> end
|1174> Ti>    4.00000000000   -6.50803929747   -2.96109353596   -4.52611107891
|1175> NewECP
|1176> N_core 0
|1177>   lmax f
|1178>   s 2
|1179>    1      0.860000       9.191690  2
|1180>    2      0.172000       0.008301  2
|1181>   p 2
|1182>    1      0.860000      17.997720  2
|1183>    2      0.172000      -0.032600  2
|1184>   d 2
|1185>    1      1.600000      -9.504310  2
|1186>    2      0.320000      -0.151370  2
|1187>   f 1
|1188>    1      1.000000000    0.000000000 2
|1189> end
|1190> Ti>    4.00000000000   -6.50803929747    1.48054676798    5.23594786729
|1191> NewECP
|1192> N_core 0
|1193>   lmax f
|1194>   s 2
|1195>    1      0.860000       9.191690  2
|1196>    2      0.172000       0.008301  2
|1197>   p 2
|1198>    1      0.860000      17.997720  2
|1199>    2      0.172000      -0.032600  2
|1200>   d 2
|1201>    1      1.600000      -9.504310  2
|1202>    2      0.320000      -0.151370  2
|1203>   f 1
|1204>    1      1.000000000    0.000000000 2
|1205> end
|1206> Ti>    4.00000000000    6.50803929747    1.48054676798    5.23594786729
|1207> NewECP
|1208> N_core 0
|1209>   lmax f
|1210>   s 2
|1211>    1      0.860000       9.191690  2
|1212>    2      0.172000       0.008301  2
|1213>   p 2
|1214>    1      0.860000      17.997720  2
|1215>    2      0.172000      -0.032600  2
|1216>   d 2
|1217>    1      1.600000      -9.504310  2
|1218>    2      0.320000      -0.151370  2
|1219>   f 1
|1220>    1      1.000000000    0.000000000 2
|1221> end
|1222> Ti>    4.00000000000    6.50803929747   -1.48054676798    5.23594786729
|1223> NewECP
|1224> N_core 0
|1225>   lmax f
|1226>   s 2
|1227>    1      0.860000       9.191690  2
|1228>    2      0.172000       0.008301  2
|1229>   p 2
|1230>    1      0.860000      17.997720  2
|1231>    2      0.172000      -0.032600  2
|1232>   d 2
|1233>    1      1.600000      -9.504310  2
|1234>    2      0.320000      -0.151370  2
|1235>   f 1
|1236>    1      1.000000000    0.000000000 2
|1237> end
|1238> Ti>    4.00000000000   -6.50803929747   -1.48054676798    5.23594786729
|1239> NewECP
|1240> N_core 0
|1241>   lmax f
|1242>   s 2
|1243>    1      0.860000       9.191690  2
|1244>    2      0.172000       0.008301  2
|1245>   p 2
|1246>    1      0.860000      17.997720  2
|1247>    2      0.172000      -0.032600  2
|1248>   d 2
|1249>    1      1.600000      -9.504310  2
|1250>    2      0.320000      -0.151370  2
|1251>   f 1
|1252>    1      1.000000000    0.000000000 2
|1253> end
|1254> Ti>    4.00000000000    0.00000000000    0.00000000000    8.48996751602
|1255> NewECP
|1256> N_core 0
|1257>   lmax f
|1258>   s 2
|1259>    1      0.860000       9.191690  2
|1260>    2      0.172000       0.008301  2
|1261>   p 2
|1262>    1      0.860000      17.997720  2
|1263>    2      0.172000      -0.032600  2
|1264>   d 2
|1265>    1      1.600000      -9.504310  2
|1266>    2      0.320000      -0.151370  2
|1267>   f 1
|1268>    1      1.000000000    0.000000000 2
|1269> end
|1270> Ti>    4.00000000000   -3.25401964873    5.92218707193    5.23594786729
|1271> NewECP
|1272> N_core 0
|1273>   lmax f
|1274>   s 2
|1275>    1      0.860000       9.191690  2
|1276>    2      0.172000       0.008301  2
|1277>   p 2
|1278>    1      0.860000      17.997720  2
|1279>    2      0.172000      -0.032600  2
|1280>   d 2
|1281>    1      1.600000      -9.504310  2
|1282>    2      0.320000      -0.151370  2
|1283>   f 1
|1284>    1      1.000000000    0.000000000 2
|1285> end
|1286> Ti>    4.00000000000    3.25401964873    5.92218707193    5.23594786729
|1287> NewECP
|1288> N_core 0
|1289>   lmax f
|1290>   s 2
|1291>    1      0.860000       9.191690  2
|1292>    2      0.172000       0.008301  2
|1293>   p 2
|1294>    1      0.860000      17.997720  2
|1295>    2      0.172000      -0.032600  2
|1296>   d 2
|1297>    1      1.600000      -9.504310  2
|1298>    2      0.320000      -0.151370  2
|1299>   f 1
|1300>    1      1.000000000    0.000000000 2
|1301> end
|1302> Ti>    4.00000000000    3.25401964873   -5.92218707193    5.23594786729
|1303> NewECP
|1304> N_core 0
|1305>   lmax f
|1306>   s 2
|1307>    1      0.860000       9.191690  2
|1308>    2      0.172000       0.008301  2
|1309>   p 2
|1310>    1      0.860000      17.997720  2
|1311>    2      0.172000      -0.032600  2
|1312>   d 2
|1313>    1      1.600000      -9.504310  2
|1314>    2      0.320000      -0.151370  2
|1315>   f 1
|1316>    1      1.000000000    0.000000000 2
|1317> end
|1318> Ti>    4.00000000000   -3.25401964873   -5.92218707193    5.23594786729
|1319> NewECP
|1320> N_core 0
|1321>   lmax f
|1322>   s 2
|1323>    1      0.860000       9.191690  2
|1324>    2      0.172000       0.008301  2
|1325>   p 2
|1326>    1      0.860000      17.997720  2
|1327>    2      0.172000      -0.032600  2
|1328>   d 2
|1329>    1      1.600000      -9.504310  2
|1330>    2      0.320000      -0.151370  2
|1331>   f 1
|1332>    1      1.000000000    0.000000000 2
|1333> end
|1334> Ti>    4.00000000000   -3.25401964873    2.96109353596   -7.78013072764
|1335> NewECP
|1336> N_core 0
|1337>   lmax f
|1338>   s 2
|1339>    1      0.860000       9.191690  2
|1340>    2      0.172000       0.008301  2
|1341>   p 2
|1342>    1      0.860000      17.997720  2
|1343>    2      0.172000      -0.032600  2
|1344>   d 2
|1345>    1      1.600000      -9.504310  2
|1346>    2      0.320000      -0.151370  2
|1347>   f 1
|1348>    1      1.000000000    0.000000000 2
|1349> end
|1350> Ti>    4.00000000000    3.25401964873    2.96109353596   -7.78013072764
|1351> NewECP
|1352> N_core 0
|1353>   lmax f
|1354>   s 2
|1355>    1      0.860000       9.191690  2
|1356>    2      0.172000       0.008301  2
|1357>   p 2
|1358>    1      0.860000      17.997720  2
|1359>    2      0.172000      -0.032600  2
|1360>   d 2
|1361>    1      1.600000      -9.504310  2
|1362>    2      0.320000      -0.151370  2
|1363>   f 1
|1364>    1      1.000000000    0.000000000 2
|1365> end
|1366> Ti>    4.00000000000    3.25401964873   -2.96109353596   -7.78013072764
|1367> NewECP
|1368> N_core 0
|1369>   lmax f
|1370>   s 2
|1371>    1      0.860000       9.191690  2
|1372>    2      0.172000       0.008301  2
|1373>   p 2
|1374>    1      0.860000      17.997720  2
|1375>    2      0.172000      -0.032600  2
|1376>   d 2
|1377>    1      1.600000      -9.504310  2
|1378>    2      0.320000      -0.151370  2
|1379>   f 1
|1380>    1      1.000000000    0.000000000 2
|1381> end
|1382> Ti>    4.00000000000   -3.25401964873   -2.96109353596   -7.78013072764
|1383> NewECP
|1384> N_core 0
|1385>   lmax f
|1386>   s 2
|1387>    1      0.860000       9.191690  2
|1388>    2      0.172000       0.008301  2
|1389>   p 2
|1390>    1      0.860000      17.997720  2
|1391>    2      0.172000      -0.032600  2
|1392>   d 2
|1393>    1      1.600000      -9.504310  2
|1394>    2      0.320000      -0.151370  2
|1395>   f 1
|1396>    1      1.000000000    0.000000000 2
|1397> end
|1398> Ti>    4.00000000000    0.00000000000    4.44164030394   -7.78013072764
|1399> NewECP
|1400> N_core 0
|1401>   lmax f
|1402>   s 2
|1403>    1      0.860000       9.191690  2
|1404>    2      0.172000       0.008301  2
|1405>   p 2
|1406>    1      0.860000      17.997720  2
|1407>    2      0.172000      -0.032600  2
|1408>   d 2
|1409>    1      1.600000      -9.504310  2
|1410>    2      0.320000      -0.151370  2
|1411>   f 1
|1412>    1      1.000000000    0.000000000 2
|1413> end
|1414> Ti>    4.00000000000    0.00000000000   -4.44164030394   -7.78013072764
|1415> NewECP
|1416> N_core 0
|1417>   lmax f
|1418>   s 2
|1419>    1      0.860000       9.191690  2
|1420>    2      0.172000       0.008301  2
|1421>   p 2
|1422>    1      0.860000      17.997720  2
|1423>    2      0.172000      -0.032600  2
|1424>   d 2
|1425>    1      1.600000      -9.504310  2
|1426>    2      0.320000      -0.151370  2
|1427>   f 1
|1428>    1      1.000000000    0.000000000 2
|1429> end
|1430> Ti>    4.00000000000    0.00000000000    2.96109353596    8.48996751602
|1431> NewECP
|1432> N_core 0
|1433>   lmax f
|1434>   s 2
|1435>    1      0.860000       9.191690  2
|1436>    2      0.172000       0.008301  2
|1437>   p 2
|1438>    1      0.860000      17.997720  2
|1439>    2      0.172000      -0.032600  2
|1440>   d 2
|1441>    1      1.600000      -9.504310  2
|1442>    2      0.320000      -0.151370  2
|1443>   f 1
|1444>    1      1.000000000    0.000000000 2
|1445> end
|1446> Ti>    4.00000000000    0.00000000000   -2.96109353596    8.48996751602
|1447> NewECP
|1448> N_core 0
|1449>   lmax f
|1450>   s 2
|1451>    1      0.860000       9.191690  2
|1452>    2      0.172000       0.008301  2
|1453>   p 2
|1454>    1      0.860000      17.997720  2
|1455>    2      0.172000      -0.032600  2
|1456>   d 2
|1457>    1      1.600000      -9.504310  2
|1458>    2      0.320000      -0.151370  2
|1459>   f 1
|1460>    1      1.000000000    0.000000000 2
|1461> end
|1462> Ti>    4.00000000000   -6.50803929747    5.92218707193    1.98192821856
|1463> NewECP
|1464> N_core 0
|1465>   lmax f
|1466>   s 2
|1467>    1      0.860000       9.191690  2
|1468>    2      0.172000       0.008301  2
|1469>   p 2
|1470>    1      0.860000      17.997720  2
|1471>    2      0.172000      -0.032600  2
|1472>   d 2
|1473>    1      1.600000      -9.504310  2
|1474>    2      0.320000      -0.151370  2
|1475>   f 1
|1476>    1      1.000000000    0.000000000 2
|1477> end
|1478> Ti>    4.00000000000    6.50803929747    5.92218707193    1.98192821856
|1479> NewECP
|1480> N_core 0
|1481>   lmax f
|1482>   s 2
|1483>    1      0.860000       9.191690  2
|1484>    2      0.172000       0.008301  2
|1485>   p 2
|1486>    1      0.860000      17.997720  2
|1487>    2      0.172000      -0.032600  2
|1488>   d 2
|1489>    1      1.600000      -9.504310  2
|1490>    2      0.320000      -0.151370  2
|1491>   f 1
|1492>    1      1.000000000    0.000000000 2
|1493> end
|1494> Ti>    4.00000000000    6.50803929747   -5.92218707193    1.98192821856
|1495> NewECP
|1496> N_core 0
|1497>   lmax f
|1498>   s 2
|1499>    1      0.860000       9.191690  2
|1500>    2      0.172000       0.008301  2
|1501>   p 2
|1502>    1      0.860000      17.997720  2
|1503>    2      0.172000      -0.032600  2
|1504>   d 2
|1505>    1      1.600000      -9.504310  2
|1506>    2      0.320000      -0.151370  2
|1507>   f 1
|1508>    1      1.000000000    0.000000000 2
|1509> end
|1510> Ti>    4.00000000000   -6.50803929747   -5.92218707193    1.98192821856
|1511> NewECP
|1512> N_core 0
|1513>   lmax f
|1514>   s 2
|1515>    1      0.860000       9.191690  2
|1516>    2      0.172000       0.008301  2
|1517>   p 2
|1518>    1      0.860000      17.997720  2
|1519>    2      0.172000      -0.032600  2
|1520>   d 2
|1521>    1      1.600000      -9.504310  2
|1522>    2      0.320000      -0.151370  2
|1523>   f 1
|1524>    1      1.000000000    0.000000000 2
|1525> end
|1526> Ti>    4.00000000000    0.00000000000    7.40273383991    5.23594786729
|1527> NewECP
|1528> N_core 0
|1529>   lmax f
|1530>   s 2
|1531>    1      0.860000       9.191690  2
|1532>    2      0.172000       0.008301  2
|1533>   p 2
|1534>    1      0.860000      17.997720  2
|1535>    2      0.172000      -0.032600  2
|1536>   d 2
|1537>    1      1.600000      -9.504310  2
|1538>    2      0.320000      -0.151370  2
|1539>   f 1
|1540>    1      1.000000000    0.000000000 2
|1541> end
|1542> Ti>    4.00000000000    0.00000000000   -7.40273383991    5.23594786729
|1543> NewECP
|1544> N_core 0
|1545>   lmax f
|1546>   s 2
|1547>    1      0.860000       9.191690  2
|1548>    2      0.172000       0.008301  2
|1549>   p 2
|1550>    1      0.860000      17.997720  2
|1551>    2      0.172000      -0.032600  2
|1552>   d 2
|1553>    1      1.600000      -9.504310  2
|1554>    2      0.320000      -0.151370  2
|1555>   f 1
|1556>    1      1.000000000    0.000000000 2
|1557> end
|1558> Ti>    4.00000000000    0.00000000000    8.88328060789    1.98192821856
|1559> NewECP
|1560> N_core 0
|1561>   lmax f
|1562>   s 2
|1563>    1      0.860000       9.191690  2
|1564>    2      0.172000       0.008301  2
|1565>   p 2
|1566>    1      0.860000      17.997720  2
|1567>    2      0.172000      -0.032600  2
|1568>   d 2
|1569>    1      1.600000      -9.504310  2
|1570>    2      0.320000      -0.151370  2
|1571>   f 1
|1572>    1      1.000000000    0.000000000 2
|1573> end
|1574> Ti>    4.00000000000    0.00000000000   -8.88328060789    1.98192821856
|1575> NewECP
|1576> N_core 0
|1577>   lmax f
|1578>   s 2
|1579>    1      0.860000       9.191690  2
|1580>    2      0.172000       0.008301  2
|1581>   p 2
|1582>    1      0.860000      17.997720  2
|1583>    2      0.172000      -0.032600  2
|1584>   d 2
|1585>    1      1.600000      -9.504310  2
|1586>    2      0.320000      -0.151370  2
|1587>   f 1
|1588>    1      1.000000000    0.000000000 2
|1589> end
|1590> Ti>    4.00000000000   -3.25401964873    1.48054676798    8.48996751602
|1591> NewECP
|1592> N_core 0
|1593>   lmax f
|1594>   s 2
|1595>    1      0.860000       9.191690  2
|1596>    2      0.172000       0.008301  2
|1597>   p 2
|1598>    1      0.860000      17.997720  2
|1599>    2      0.172000      -0.032600  2
|1600>   d 2
|1601>    1      1.600000      -9.504310  2
|1602>    2      0.320000      -0.151370  2
|1603>   f 1
|1604>    1      1.000000000    0.000000000 2
|1605> end
|1606> Ti>    4.00000000000    3.25401964873    1.48054676798    8.48996751602
|1607> NewECP
|1608> N_core 0
|1609>   lmax f
|1610>   s 2
|1611>    1      0.860000       9.191690  2
|1612>    2      0.172000       0.008301  2
|1613>   p 2
|1614>    1      0.860000      17.997720  2
|1615>    2      0.172000      -0.032600  2
|1616>   d 2
|1617>    1      1.600000      -9.504310  2
|1618>    2      0.320000      -0.151370  2
|1619>   f 1
|1620>    1      1.000000000    0.000000000 2
|1621> end
|1622> Ti>    4.00000000000    3.25401964873   -1.48054676798    8.48996751602
|1623> NewECP
|1624> N_core 0
|1625>   lmax f
|1626>   s 2
|1627>    1      0.860000       9.191690  2
|1628>    2      0.172000       0.008301  2
|1629>   p 2
|1630>    1      0.860000      17.997720  2
|1631>    2      0.172000      -0.032600  2
|1632>   d 2
|1633>    1      1.600000      -9.504310  2
|1634>    2      0.320000      -0.151370  2
|1635>   f 1
|1636>    1      1.000000000    0.000000000 2
|1637> end
|1638> Ti>    4.00000000000   -3.25401964873   -1.48054676798    8.48996751602
|1639> NewECP
|1640> N_core 0
|1641>   lmax f
|1642>   s 2
|1643>    1      0.860000       9.191690  2
|1644>    2      0.172000       0.008301  2
|1645>   p 2
|1646>    1      0.860000      17.997720  2
|1647>    2      0.172000      -0.032600  2
|1648>   d 2
|1649>    1      1.600000      -9.504310  2
|1650>    2      0.320000      -0.151370  2
|1651>   f 1
|1652>    1      1.000000000    0.000000000 2
|1653> end
|1654> Ti>    4.00000000000   -3.25401964873    7.40273383991   -4.52611107891
|1655> NewECP
|1656> N_core 0
|1657>   lmax f
|1658>   s 2
|1659>    1      0.860000       9.191690  2
|1660>    2      0.172000       0.008301  2
|1661>   p 2
|1662>    1      0.860000      17.997720  2
|1663>    2      0.172000      -0.032600  2
|1664>   d 2
|1665>    1      1.600000      -9.504310  2
|1666>    2      0.320000      -0.151370  2
|1667>   f 1
|1668>    1      1.000000000    0.000000000 2
|1669> end
|1670> Ti>    4.00000000000    3.25401964873    7.40273383991   -4.52611107891
|1671> NewECP
|1672> N_core 0
|1673>   lmax f
|1674>   s 2
|1675>    1      0.860000       9.191690  2
|1676>    2      0.172000       0.008301  2
|1677>   p 2
|1678>    1      0.860000      17.997720  2
|1679>    2      0.172000      -0.032600  2
|1680>   d 2
|1681>    1      1.600000      -9.504310  2
|1682>    2      0.320000      -0.151370  2
|1683>   f 1
|1684>    1      1.000000000    0.000000000 2
|1685> end
|1686> Ti>    4.00000000000    3.25401964873   -7.40273383991   -4.52611107891
|1687> NewECP
|1688> N_core 0
|1689>   lmax f
|1690>   s 2
|1691>    1      0.860000       9.191690  2
|1692>    2      0.172000       0.008301  2
|1693>   p 2
|1694>    1      0.860000      17.997720  2
|1695>    2      0.172000      -0.032600  2
|1696>   d 2
|1697>    1      1.600000      -9.504310  2
|1698>    2      0.320000      -0.151370  2
|1699>   f 1
|1700>    1      1.000000000    0.000000000 2
|1701> end
|1702> Ti>    4.00000000000   -3.25401964873   -7.40273383991   -4.52611107891
|1703> NewECP
|1704> N_core 0
|1705>   lmax f
|1706>   s 2
|1707>    1      0.860000       9.191690  2
|1708>    2      0.172000       0.008301  2
|1709>   p 2
|1710>    1      0.860000      17.997720  2
|1711>    2      0.172000      -0.032600  2
|1712>   d 2
|1713>    1      1.600000      -9.504310  2
|1714>    2      0.320000      -0.151370  2
|1715>   f 1
|1716>    1      1.000000000    0.000000000 2
|1717> end
|1718> Ti>    4.00000000000   -6.50803929747    4.44164030394    5.23594786729
|1719> NewECP
|1720> N_core 0
|1721>   lmax f
|1722>   s 2
|1723>    1      0.860000       9.191690  2
|1724>    2      0.172000       0.008301  2
|1725>   p 2
|1726>    1      0.860000      17.997720  2
|1727>    2      0.172000      -0.032600  2
|1728>   d 2
|1729>    1      1.600000      -9.504310  2
|1730>    2      0.320000      -0.151370  2
|1731>   f 1
|1732>    1      1.000000000    0.000000000 2
|1733> end
|1734> Ti>    4.00000000000    6.50803929747    4.44164030394    5.23594786729
|1735> NewECP
|1736> N_core 0
|1737>   lmax f
|1738>   s 2
|1739>    1      0.860000       9.191690  2
|1740>    2      0.172000       0.008301  2
|1741>   p 2
|1742>    1      0.860000      17.997720  2
|1743>    2      0.172000      -0.032600  2
|1744>   d 2
|1745>    1      1.600000      -9.504310  2
|1746>    2      0.320000      -0.151370  2
|1747>   f 1
|1748>    1      1.000000000    0.000000000 2
|1749> end
|1750> Ti>    4.00000000000    6.50803929747   -4.44164030394    5.23594786729
|1751> NewECP
|1752> N_core 0
|1753>   lmax f
|1754>   s 2
|1755>    1      0.860000       9.191690  2
|1756>    2      0.172000       0.008301  2
|1757>   p 2
|1758>    1      0.860000      17.997720  2
|1759>    2      0.172000      -0.032600  2
|1760>   d 2
|1761>    1      1.600000      -9.504310  2
|1762>    2      0.320000      -0.151370  2
|1763>   f 1
|1764>    1      1.000000000    0.000000000 2
|1765> end
|1766> Ti>    4.00000000000   -6.50803929747   -4.44164030394    5.23594786729
|1767> NewECP
|1768> N_core 0
|1769>   lmax f
|1770>   s 2
|1771>    1      0.860000       9.191690  2
|1772>    2      0.172000       0.008301  2
|1773>   p 2
|1774>    1      0.860000      17.997720  2
|1775>    2      0.172000      -0.032600  2
|1776>   d 2
|1777>    1      1.600000      -9.504310  2
|1778>    2      0.320000      -0.151370  2
|1779>   f 1
|1780>    1      1.000000000    0.000000000 2
|1781> end
|1782> Ti>    4.00000000000   -3.25401964873    8.88328060789   -1.27209143018
|1783> NewECP
|1784> N_core 0
|1785>   lmax f
|1786>   s 2
|1787>    1      0.860000       9.191690  2
|1788>    2      0.172000       0.008301  2
|1789>   p 2
|1790>    1      0.860000      17.997720  2
|1791>    2      0.172000      -0.032600  2
|1792>   d 2
|1793>    1      1.600000      -9.504310  2
|1794>    2      0.320000      -0.151370  2
|1795>   f 1
|1796>    1      1.000000000    0.000000000 2
|1797> end
|1798> Ti>    4.00000000000    3.25401964873    8.88328060789   -1.27209143018
|1799> NewECP
|1800> N_core 0
|1801>   lmax f
|1802>   s 2
|1803>    1      0.860000       9.191690  2
|1804>    2      0.172000       0.008301  2
|1805>   p 2
|1806>    1      0.860000      17.997720  2
|1807>    2      0.172000      -0.032600  2
|1808>   d 2
|1809>    1      1.600000      -9.504310  2
|1810>    2      0.320000      -0.151370  2
|1811>   f 1
|1812>    1      1.000000000    0.000000000 2
|1813> end
|1814> Ti>    4.00000000000    3.25401964873   -8.88328060789   -1.27209143018
|1815> NewECP
|1816> N_core 0
|1817>   lmax f
|1818>   s 2
|1819>    1      0.860000       9.191690  2
|1820>    2      0.172000       0.008301  2
|1821>   p 2
|1822>    1      0.860000      17.997720  2
|1823>    2      0.172000      -0.032600  2
|1824>   d 2
|1825>    1      1.600000      -9.504310  2
|1826>    2      0.320000      -0.151370  2
|1827>   f 1
|1828>    1      1.000000000    0.000000000 2
|1829> end
|1830> Ti>    4.00000000000   -3.25401964873   -8.88328060789   -1.27209143018
|1831> NewECP
|1832> N_core 0
|1833>   lmax f
|1834>   s 2
|1835>    1      0.860000       9.191690  2
|1836>    2      0.172000       0.008301  2
|1837>   p 2
|1838>    1      0.860000      17.997720  2
|1839>    2      0.172000      -0.032600  2
|1840>   d 2
|1841>    1      1.600000      -9.504310  2
|1842>    2      0.320000      -0.151370  2
|1843>   f 1
|1844>    1      1.000000000    0.000000000 2
|1845> end
|1846> Ti>    4.00000000000   -9.76205894620    0.00000000000   -1.27209143018
|1847> NewECP
|1848> N_core 0
|1849>   lmax f
|1850>   s 2
|1851>    1      0.860000       9.191690  2
|1852>    2      0.172000       0.008301  2
|1853>   p 2
|1854>    1      0.860000      17.997720  2
|1855>    2      0.172000      -0.032600  2
|1856>   d 2
|1857>    1      1.600000      -9.504310  2
|1858>    2      0.320000      -0.151370  2
|1859>   f 1
|1860>    1      1.000000000    0.000000000 2
|1861> end
|1862> Ti>    4.00000000000    9.76205894620    0.00000000000   -1.27209143018
|1863> NewECP
|1864> N_core 0
|1865>   lmax f
|1866>   s 2
|1867>    1      0.860000       9.191690  2
|1868>    2      0.172000       0.008301  2
|1869>   p 2
|1870>    1      0.860000      17.997720  2
|1871>    2      0.172000      -0.032600  2
|1872>   d 2
|1873>    1      1.600000      -9.504310  2
|1874>    2      0.320000      -0.151370  2
|1875>   f 1
|1876>    1      1.000000000    0.000000000 2
|1877> end
|1878> Ti>    4.00000000000   -6.50803929747    5.92218707193   -4.52611107891
|1879> NewECP
|1880> N_core 0
|1881>   lmax f
|1882>   s 2
|1883>    1      0.860000       9.191690  2
|1884>    2      0.172000       0.008301  2
|1885>   p 2
|1886>    1      0.860000      17.997720  2
|1887>    2      0.172000      -0.032600  2
|1888>   d 2
|1889>    1      1.600000      -9.504310  2
|1890>    2      0.320000      -0.151370  2
|1891>   f 1
|1892>    1      1.000000000    0.000000000 2
|1893> end
|1894> Ti>    4.00000000000    6.50803929747    5.92218707193   -4.52611107891
|1895> NewECP
|1896> N_core 0
|1897>   lmax f
|1898>   s 2
|1899>    1      0.860000       9.191690  2
|1900>    2      0.172000       0.008301  2
|1901>   p 2
|1902>    1      0.860000      17.997720  2
|1903>    2      0.172000      -0.032600  2
|1904>   d 2
|1905>    1      1.600000      -9.504310  2
|1906>    2      0.320000      -0.151370  2
|1907>   f 1
|1908>    1      1.000000000    0.000000000 2
|1909> end
|1910> Ti>    4.00000000000    6.50803929747   -5.92218707193   -4.52611107891
|1911> NewECP
|1912> N_core 0
|1913>   lmax f
|1914>   s 2
|1915>    1      0.860000       9.191690  2
|1916>    2      0.172000       0.008301  2
|1917>   p 2
|1918>    1      0.860000      17.997720  2
|1919>    2      0.172000      -0.032600  2
|1920>   d 2
|1921>    1      1.600000      -9.504310  2
|1922>    2      0.320000      -0.151370  2
|1923>   f 1
|1924>    1      1.000000000    0.000000000 2
|1925> end
|1926> Ti>    4.00000000000   -6.50803929747   -5.92218707193   -4.52611107891
|1927> NewECP
|1928> N_core 0
|1929>   lmax f
|1930>   s 2
|1931>    1      0.860000       9.191690  2
|1932>    2      0.172000       0.008301  2
|1933>   p 2
|1934>    1      0.860000      17.997720  2
|1935>    2      0.172000      -0.032600  2
|1936>   d 2
|1937>    1      1.600000      -9.504310  2
|1938>    2      0.320000      -0.151370  2
|1939>   f 1
|1940>    1      1.000000000    0.000000000 2
|1941> end
|1942> Ti>    4.00000000000   -6.50803929747    7.40273383991   -1.27209143018
|1943> NewECP
|1944> N_core 0
|1945>   lmax f
|1946>   s 2
|1947>    1      0.860000       9.191690  2
|1948>    2      0.172000       0.008301  2
|1949>   p 2
|1950>    1      0.860000      17.997720  2
|1951>    2      0.172000      -0.032600  2
|1952>   d 2
|1953>    1      1.600000      -9.504310  2
|1954>    2      0.320000      -0.151370  2
|1955>   f 1
|1956>    1      1.000000000    0.000000000 2
|1957> end
|1958> Ti>    4.00000000000    6.50803929747    7.40273383991   -1.27209143018
|1959> NewECP
|1960> N_core 0
|1961>   lmax f
|1962>   s 2
|1963>    1      0.860000       9.191690  2
|1964>    2      0.172000       0.008301  2
|1965>   p 2
|1966>    1      0.860000      17.997720  2
|1967>    2      0.172000      -0.032600  2
|1968>   d 2
|1969>    1      1.600000      -9.504310  2
|1970>    2      0.320000      -0.151370  2
|1971>   f 1
|1972>    1      1.000000000    0.000000000 2
|1973> end
|1974> Ti>    4.00000000000    6.50803929747   -7.40273383991   -1.27209143018
|1975> NewECP
|1976> N_core 0
|1977>   lmax f
|1978>   s 2
|1979>    1      0.860000       9.191690  2
|1980>    2      0.172000       0.008301  2
|1981>   p 2
|1982>    1      0.860000      17.997720  2
|1983>    2      0.172000      -0.032600  2
|1984>   d 2
|1985>    1      1.600000      -9.504310  2
|1986>    2      0.320000      -0.151370  2
|1987>   f 1
|1988>    1      1.000000000    0.000000000 2
|1989> end
|1990> Ti>    4.00000000000   -6.50803929747   -7.40273383991   -1.27209143018
|1991> NewECP
|1992> N_core 0
|1993>   lmax f
|1994>   s 2
|1995>    1      0.860000       9.191690  2
|1996>    2      0.172000       0.008301  2
|1997>   p 2
|1998>    1      0.860000      17.997720  2
|1999>    2      0.172000      -0.032600  2
|2000>   d 2
|2001>    1      1.600000      -9.504310  2
|2002>    2      0.320000      -0.151370  2
|2003>   f 1
|2004>    1      1.000000000    0.000000000 2
|2005> end
|2006> Ti>    4.00000000000    0.00000000000    8.88328060789   -4.52611107891
|2007> NewECP
|2008> N_core 0
|2009>   lmax f
|2010>   s 2
|2011>    1      0.860000       9.191690  2
|2012>    2      0.172000       0.008301  2
|2013>   p 2
|2014>    1      0.860000      17.997720  2
|2015>    2      0.172000      -0.032600  2
|2016>   d 2
|2017>    1      1.600000      -9.504310  2
|2018>    2      0.320000      -0.151370  2
|2019>   f 1
|2020>    1      1.000000000    0.000000000 2
|2021> end
|2022> Ti>    4.00000000000    0.00000000000   -8.88328060789   -4.52611107891
|2023> NewECP
|2024> N_core 0
|2025>   lmax f
|2026>   s 2
|2027>    1      0.860000       9.191690  2
|2028>    2      0.172000       0.008301  2
|2029>   p 2
|2030>    1      0.860000      17.997720  2
|2031>    2      0.172000      -0.032600  2
|2032>   d 2
|2033>    1      1.600000      -9.504310  2
|2034>    2      0.320000      -0.151370  2
|2035>   f 1
|2036>    1      1.000000000    0.000000000 2
|2037> end
|2038> Ti>    4.00000000000   -9.76205894620    1.48054676798    1.98192821856
|2039> NewECP
|2040> N_core 0
|2041>   lmax f
|2042>   s 2
|2043>    1      0.860000       9.191690  2
|2044>    2      0.172000       0.008301  2
|2045>   p 2
|2046>    1      0.860000      17.997720  2
|2047>    2      0.172000      -0.032600  2
|2048>   d 2
|2049>    1      1.600000      -9.504310  2
|2050>    2      0.320000      -0.151370  2
|2051>   f 1
|2052>    1      1.000000000    0.000000000 2
|2053> end
|2054> Ti>    4.00000000000    9.76205894620    1.48054676798    1.98192821856
|2055> NewECP
|2056> N_core 0
|2057>   lmax f
|2058>   s 2
|2059>    1      0.860000       9.191690  2
|2060>    2      0.172000       0.008301  2
|2061>   p 2
|2062>    1      0.860000      17.997720  2
|2063>    2      0.172000      -0.032600  2
|2064>   d 2
|2065>    1      1.600000      -9.504310  2
|2066>    2      0.320000      -0.151370  2
|2067>   f 1
|2068>    1      1.000000000    0.000000000 2
|2069> end
|2070> Ti>    4.00000000000    9.76205894620   -1.48054676798    1.98192821856
|2071> NewECP
|2072> N_core 0
|2073>   lmax f
|2074>   s 2
|2075>    1      0.860000       9.191690  2
|2076>    2      0.172000       0.008301  2
|2077>   p 2
|2078>    1      0.860000      17.997720  2
|2079>    2      0.172000      -0.032600  2
|2080>   d 2
|2081>    1      1.600000      -9.504310  2
|2082>    2      0.320000      -0.151370  2
|2083>   f 1
|2084>    1      1.000000000    0.000000000 2
|2085> end
|2086> Ti>    4.00000000000   -9.76205894620   -1.48054676798    1.98192821856
|2087> NewECP
|2088> N_core 0
|2089>   lmax f
|2090>   s 2
|2091>    1      0.860000       9.191690  2
|2092>    2      0.172000       0.008301  2
|2093>   p 2
|2094>    1      0.860000      17.997720  2
|2095>    2      0.172000      -0.032600  2
|2096>   d 2
|2097>    1      1.600000      -9.504310  2
|2098>    2      0.320000      -0.151370  2
|2099>   f 1
|2100>    1      1.000000000    0.000000000 2
|2101> end
|2102> Ti>    4.00000000000   -3.25401964873    4.44164030394    8.48996751602
|2103> NewECP
|2104> N_core 0
|2105>   lmax f
|2106>   s 2
|2107>    1      0.860000       9.191690  2
|2108>    2      0.172000       0.008301  2
|2109>   p 2
|2110>    1      0.860000      17.997720  2
|2111>    2      0.172000      -0.032600  2
|2112>   d 2
|2113>    1      1.600000      -9.504310  2
|2114>    2      0.320000      -0.151370  2
|2115>   f 1
|2116>    1      1.000000000    0.000000000 2
|2117> end
|2118> Ti>    4.00000000000    3.25401964873    4.44164030394    8.48996751602
|2119> NewECP
|2120> N_core 0
|2121>   lmax f
|2122>   s 2
|2123>    1      0.860000       9.191690  2
|2124>    2      0.172000       0.008301  2
|2125>   p 2
|2126>    1      0.860000      17.997720  2
|2127>    2      0.172000      -0.032600  2
|2128>   d 2
|2129>    1      1.600000      -9.504310  2
|2130>    2      0.320000      -0.151370  2
|2131>   f 1
|2132>    1      1.000000000    0.000000000 2
|2133> end
|2134> Ti>    4.00000000000    3.25401964873   -4.44164030394    8.48996751602
|2135> NewECP
|2136> N_core 0
|2137>   lmax f
|2138>   s 2
|2139>    1      0.860000       9.191690  2
|2140>    2      0.172000       0.008301  2
|2141>   p 2
|2142>    1      0.860000      17.997720  2
|2143>    2      0.172000      -0.032600  2
|2144>   d 2
|2145>    1      1.600000      -9.504310  2
|2146>    2      0.320000      -0.151370  2
|2147>   f 1
|2148>    1      1.000000000    0.000000000 2
|2149> end
|2150> Ti>    4.00000000000   -3.25401964873   -4.44164030394    8.48996751602
|2151> NewECP
|2152> N_core 0
|2153>   lmax f
|2154>   s 2
|2155>    1      0.860000       9.191690  2
|2156>    2      0.172000       0.008301  2
|2157>   p 2
|2158>    1      0.860000      17.997720  2
|2159>    2      0.172000      -0.032600  2
|2160>   d 2
|2161>    1      1.600000      -9.504310  2
|2162>    2      0.320000      -0.151370  2
|2163>   f 1
|2164>    1      1.000000000    0.000000000 2
|2165> end
|2166> Ti>    4.00000000000   -6.50803929747    1.48054676798   -7.78013072764
|2167> NewECP
|2168> N_core 0
|2169>   lmax f
|2170>   s 2
|2171>    1      0.860000       9.191690  2
|2172>    2      0.172000       0.008301  2
|2173>   p 2
|2174>    1      0.860000      17.997720  2
|2175>    2      0.172000      -0.032600  2
|2176>   d 2
|2177>    1      1.600000      -9.504310  2
|2178>    2      0.320000      -0.151370  2
|2179>   f 1
|2180>    1      1.000000000    0.000000000 2
|2181> end
|2182> Ti>    4.00000000000    6.50803929747    1.48054676798   -7.78013072764
|2183> NewECP
|2184> N_core 0
|2185>   lmax f
|2186>   s 2
|2187>    1      0.860000       9.191690  2
|2188>    2      0.172000       0.008301  2
|2189>   p 2
|2190>    1      0.860000      17.997720  2
|2191>    2      0.172000      -0.032600  2
|2192>   d 2
|2193>    1      1.600000      -9.504310  2
|2194>    2      0.320000      -0.151370  2
|2195>   f 1
|2196>    1      1.000000000    0.000000000 2
|2197> end
|2198> Ti>    4.00000000000    6.50803929747   -1.48054676798   -7.78013072764
|2199> NewECP
|2200> N_core 0
|2201>   lmax f
|2202>   s 2
|2203>    1      0.860000       9.191690  2
|2204>    2      0.172000       0.008301  2
|2205>   p 2
|2206>    1      0.860000      17.997720  2
|2207>    2      0.172000      -0.032600  2
|2208>   d 2
|2209>    1      1.600000      -9.504310  2
|2210>    2      0.320000      -0.151370  2
|2211>   f 1
|2212>    1      1.000000000    0.000000000 2
|2213> end
|2214> Ti>    4.00000000000   -6.50803929747   -1.48054676798   -7.78013072764
|2215> NewECP
|2216> N_core 0
|2217>   lmax f
|2218>   s 2
|2219>    1      0.860000       9.191690  2
|2220>    2      0.172000       0.008301  2
|2221>   p 2
|2222>    1      0.860000      17.997720  2
|2223>    2      0.172000      -0.032600  2
|2224>   d 2
|2225>    1      1.600000      -9.504310  2
[...]
 71 Q      0.0000     4.0000     4.0000     0.0000     0.0000     0.0000
 72 Q      0.0000     4.0000     4.0000     0.0000     0.0000     0.0000
 73 Q      0.0000     4.0000     4.0000     0.0000     0.0000     0.0000
 74 Q      0.0000     4.0000     4.0000     0.0000     0.0000     0.0000
 75 Q      0.0000     4.0000     4.0000     0.0000     0.0000     0.0000
 76 Q      0.0000     4.0000     4.0000     0.0000     0.0000     0.0000
 77 Q      0.0000     4.0000     4.0000     0.0000     0.0000     0.0000
 78 Q      0.0000     4.0000     4.0000     0.0000     0.0000     0.0000
 79 Q      0.0000     4.0000     4.0000     0.0000     0.0000     0.0000
 80 Q      0.0000     4.0000     4.0000     0.0000     0.0000     0.0000
 81 Q      0.0000     4.0000     4.0000     0.0000     0.0000     0.0000
 82 Q      0.0000     4.0000     4.0000     0.0000     0.0000     0.0000
 83 Q      0.0000     4.0000     4.0000     0.0000     0.0000     0.0000
 84 Q      0.0000     4.0000     4.0000     0.0000     0.0000     0.0000
 85 Q      0.0000     4.0000     4.0000     0.0000     0.0000     0.0000
 86 Q      0.0000     4.0000     4.0000     0.0000     0.0000     0.0000
 87 Q      0.0000     4.0000     4.0000     0.0000     0.0000     0.0000
 88 Q      0.0000     4.0000     4.0000     0.0000     0.0000     0.0000
 89 Q      0.0000     4.0000     4.0000     0.0000     0.0000     0.0000
 90 Q      0.0000     4.0000     4.0000     0.0000     0.0000     0.0000
 91 Q      0.0000     4.0000     4.0000     0.0000     0.0000     0.0000
 92 Q      0.0000     4.0000     4.0000     0.0000     0.0000     0.0000
 93 Q      0.0000     4.0000     4.0000     0.0000     0.0000     0.0000
 94 Q      0.0000     4.0000     4.0000     0.0000     0.0000     0.0000
 95 Q      0.0000     4.0000     4.0000     0.0000     0.0000     0.0000
 96 Q      0.0000     4.0000     4.0000     0.0000     0.0000     0.0000
 97 Q      0.0000     4.0000     4.0000     0.0000     0.0000     0.0000
 98 Q      0.0000     4.0000     4.0000     0.0000     0.0000     0.0000
 99 Q      0.0000     4.0000     4.0000     0.0000     0.0000     0.0000
100 Q      0.0000     4.0000     4.0000     0.0000     0.0000     0.0000
101 Q      0.0000     4.0000     4.0000     0.0000     0.0000     0.0000
102 Q      0.0000     4.0000     4.0000     0.0000     0.0000     0.0000
103 Q      0.0000     4.0000     4.0000     0.0000     0.0000     0.0000
104 Q      0.0000     4.0000     4.0000     0.0000     0.0000     0.0000
105 Q      0.0000     4.0000     4.0000     0.0000     0.0000     0.0000
106 Q      0.0000     4.0000     4.0000     0.0000     0.0000     0.0000
107 Q      0.0000     4.0000     4.0000     0.0000     0.0000     0.0000
108 Q      0.0000     4.0000     4.0000     0.0000     0.0000     0.0000
109 Q      0.0000     4.0000     4.0000     0.0000     0.0000     0.0000
110 Q      0.0000     4.0000     4.0000     0.0000     0.0000     0.0000
111 Q      0.0000     4.0000     4.0000     0.0000     0.0000     0.0000
112 Q      0.0000     4.0000     4.0000     0.0000     0.0000     0.0000
113 Q      0.0000     4.0000     4.0000     0.0000     0.0000     0.0000
114 Q      0.0000     4.0000     4.0000     0.0000     0.0000     0.0000
115 Q      0.0000     4.0000     4.0000     0.0000     0.0000     0.0000
116 Q      0.0000     4.0000     4.0000     0.0000     0.0000     0.0000
117 Q      0.0000     4.0000     4.0000     0.0000     0.0000     0.0000
118 Q      0.0000     4.0000     4.0000     0.0000     0.0000     0.0000
119 Q      0.0000     4.0000     4.0000     0.0000     0.0000     0.0000
120 Q      0.0000     4.0000     4.0000     0.0000     0.0000     0.0000
121 Q      0.0000     4.0000     4.0000     0.0000     0.0000     0.0000
122 Q      0.0000     4.0000     4.0000     0.0000     0.0000     0.0000
123 Q      0.0000     4.0000     4.0000     0.0000     0.0000     0.0000
124 Q      0.0000     4.0000     4.0000     0.0000     0.0000     0.0000
125 Q      0.0000     4.0000     4.0000     0.0000     0.0000     0.0000
126 Q      0.0000     4.0000     4.0000     0.0000     0.0000     0.0000
127 Q      0.0000     4.0000     4.0000     0.0000     0.0000     0.0000
128 Q      0.0000     4.0000     4.0000     0.0000     0.0000     0.0000
129 Q      0.0000     4.0000     4.0000     0.0000     0.0000     0.0000
130 Q      0.0000     4.0000     4.0000     0.0000     0.0000     0.0000
131 Q      0.0000     4.0000     4.0000     0.0000     0.0000     0.0000
132 Q      0.0000     4.0000     4.0000     0.0000     0.0000     0.0000
133 Q      0.0000     4.0000     4.0000     0.0000     0.0000     0.0000
134 Q      0.0000     4.0000     4.0000     0.0000     0.0000     0.0000
135 Q      0.0000     4.0000     4.0000     0.0000     0.0000     0.0000
136 Q      0.0000     4.0000     4.0000     0.0000     0.0000     0.0000
137 Q      0.0000     4.0000     4.0000     0.0000     0.0000     0.0000
138 Q      0.0000     4.0000     4.0000     0.0000     0.0000     0.0000
139 Q      0.0000     4.0000     4.0000     0.0000     0.0000     0.0000
140 Q      0.0000     4.0000     4.0000     0.0000     0.0000     0.0000
141 Q      0.0000     4.0000     4.0000     0.0000     0.0000     0.0000
142 Q      0.0000     4.0000     4.0000     0.0000     0.0000     0.0000
143 Q      0.0000     4.0000     4.0000     0.0000     0.0000     0.0000
144 Q      0.0000     4.0000     4.0000     0.0000     0.0000     0.0000
145 Q      0.0000     4.0000     4.0000     0.0000     0.0000     0.0000
146 Q      0.0000     4.0000     4.0000     0.0000     0.0000     0.0000
147 Q      0.0000     4.0000     4.0000     0.0000     0.0000     0.0000
148 Q      0.0000     4.0000     4.0000     0.0000     0.0000     0.0000
149 Q      0.0000     4.0000     4.0000     0.0000     0.0000     0.0000
150 Q      0.0000     4.0000     4.0000     0.0000     0.0000     0.0000
151 Q      0.0000     4.0000     4.0000     0.0000     0.0000     0.0000
152 Q      0.0000     4.0000     4.0000     0.0000     0.0000     0.0000
153 Q      0.0000     4.0000     4.0000     0.0000     0.0000     0.0000
154 Q      0.0000     4.0000     4.0000     0.0000     0.0000     0.0000
155 Q      0.0000     4.0000     4.0000     0.0000     0.0000     0.0000
156 Q      0.0000     4.0000     4.0000     0.0000     0.0000     0.0000
157 Q      0.0000     4.0000     4.0000     0.0000     0.0000     0.0000
158 Q      0.0000     4.0000     4.0000     0.0000     0.0000     0.0000
159 Q      0.0000     4.0000     4.0000     0.0000     0.0000     0.0000
160 Q      0.0000     4.0000     4.0000     0.0000     0.0000     0.0000
161 Q      0.0000     4.0000     4.0000     0.0000     0.0000     0.0000
162 Q      0.0000     4.0000     4.0000     0.0000     0.0000     0.0000
163 Q      0.0000     4.0000     4.0000     0.0000     0.0000     0.0000
164 Q      0.0000     4.0000     4.0000     0.0000     0.0000     0.0000
165 Q      0.0000     4.0000     4.0000     0.0000     0.0000     0.0000
166 Q      0.0000     4.0000     4.0000     0.0000     0.0000     0.0000
167 Q      0.0000     4.0000     4.0000     0.0000     0.0000     0.0000
168 Q      0.0000     4.0000     4.0000     0.0000     0.0000     0.0000
169 Q      0.0000     4.0000     4.0000     0.0000     0.0000     0.0000
170 Q      0.0000     4.0000     4.0000     0.0000     0.0000     0.0000
171 Q      0.0000     4.0000     4.0000     0.0000     0.0000     0.0000
172 Q      0.0000     4.0000     4.0000     0.0000     0.0000     0.0000
173 Q      0.0000     4.0000     4.0000     0.0000     0.0000     0.0000
174 Q      0.0000     4.0000     4.0000     0.0000     0.0000     0.0000
175 Q      0.0000     4.0000     4.0000     0.0000     0.0000     0.0000
176 Q      0.0000     4.0000     4.0000     0.0000     0.0000     0.0000
177 Q      0.0000     4.0000     4.0000     0.0000     0.0000     0.0000
178 Q      0.0000     4.0000     4.0000     0.0000     0.0000     0.0000
179 Q      0.0000     4.0000     4.0000     0.0000     0.0000     0.0000
180 Q      0.0000     4.0000     4.0000     0.0000     0.0000     0.0000
181 Q      0.0000     4.0000     4.0000     0.0000     0.0000     0.0000
182 Q      0.0000     4.0000     4.0000     0.0000     0.0000     0.0000
183 Q      0.0000     4.0000     4.0000     0.0000     0.0000     0.0000
184 Q      0.0000     4.0000     4.0000     0.0000     0.0000     0.0000
185 Q      0.0000     4.0000     4.0000     0.0000     0.0000     0.0000
186 Q      0.0000     4.0000     4.0000     0.0000     0.0000     0.0000
187 Q      0.0000     4.0000     4.0000     0.0000     0.0000     0.0000
188 Q      0.0000     4.0000     4.0000     0.0000     0.0000     0.0000
189 Q      0.0000     4.0000     4.0000     0.0000     0.0000     0.0000
190 Q      0.0000     4.0000     4.0000     0.0000     0.0000     0.0000
191 Q      0.0000     4.0000     4.0000     0.0000     0.0000     0.0000
192 Q      0.0000     4.0000     4.0000     0.0000     0.0000     0.0000
193 Q      0.0000     4.0000     4.0000     0.0000     0.0000     0.0000
194 Q      0.0000     4.0000     4.0000     0.0000     0.0000     0.0000
195 Q      0.0000     4.0000     4.0000     0.0000     0.0000     0.0000
196 Q      0.0000     4.0000     4.0000     0.0000     0.0000     0.0000
197 Q      0.0000     4.0000     4.0000     0.0000     0.0000     0.0000
198 Q      0.0000     4.0000     4.0000     0.0000     0.0000     0.0000
199 Q      0.0000     4.0000     4.0000     0.0000     0.0000     0.0000
200 Q      0.0000     4.0000     4.0000     0.0000     0.0000     0.0000
201 Q      0.0000     4.0000     4.0000     0.0000     0.0000     0.0000
202 Q      0.0000     4.0000     4.0000     0.0000     0.0000     0.0000
203 Q      0.0000     4.0000     4.0000     0.0000     0.0000     0.0000
204 Q      0.0000     4.0000     4.0000     0.0000     0.0000     0.0000
205 Q      0.0000     4.0000     4.0000     0.0000     0.0000     0.0000
206 Q      0.0000     4.0000     4.0000     0.0000     0.0000     0.0000
207 Q      0.0000     4.0000     4.0000     0.0000     0.0000     0.0000
208 Q      0.0000     4.0000     4.0000     0.0000     0.0000     0.0000
209 Q      0.0000     4.0000     4.0000     0.0000     0.0000     0.0000
210 Q      0.0000     4.0000     4.0000     0.0000     0.0000     0.0000
211 Q      0.0000     4.0000     4.0000     0.0000     0.0000     0.0000
212 Q      0.0000     4.0000     4.0000     0.0000     0.0000     0.0000
213 Q      0.0000     4.0000     4.0000     0.0000     0.0000     0.0000
214 Q      0.0000     4.0000     4.0000     0.0000     0.0000     0.0000
215 Q      0.0000     4.0000     4.0000     0.0000     0.0000     0.0000
216 Q      0.0000     4.0000     4.0000     0.0000     0.0000     0.0000
217 Q      0.0000     4.0000     4.0000     0.0000     0.0000     0.0000
218 Q      0.0000     4.0000     4.0000     0.0000     0.0000     0.0000
219 Q      0.0000     4.0000     4.0000     0.0000     0.0000     0.0000
220 Q      0.0000     4.0000     4.0000     0.0000     0.0000     0.0000
221 Q      0.0000     4.0000     4.0000     0.0000     0.0000     0.0000
222 Q      0.0000     4.0000     4.0000     0.0000     0.0000     0.0000
223 Q      0.0000     4.0000     4.0000     0.0000     0.0000     0.0000
224 Q      0.0000     4.0000     4.0000     0.0000     0.0000     0.0000
225 Q      0.0000     4.0000     4.0000     0.0000     0.0000     0.0000
226 Q      0.0000     4.0000     4.0000     0.0000     0.0000     0.0000
227 Q      0.0000     4.0000     4.0000     0.0000     0.0000     0.0000
228 Q      0.0000     4.0000     4.0000     0.0000     0.0000     0.0000
229 Q      0.0000     4.0000     4.0000     0.0000     0.0000     0.0000
230 Q      0.0000     4.0000     4.0000     0.0000     0.0000     0.0000
231 Q      0.0000     4.0000     4.0000     0.0000     0.0000     0.0000
232 Q      0.0000     4.0000     4.0000     0.0000     0.0000     0.0000
233 Q      0.0000     4.0000     4.0000     0.0000     0.0000     0.0000
234 Q      0.0000     4.0000     4.0000     0.0000     0.0000     0.0000
235 Q      0.0000     4.0000     4.0000     0.0000     0.0000     0.0000
236 Q      0.0000     4.0000     4.0000     0.0000     0.0000     0.0000
237 Q      0.0000     4.0000     4.0000     0.0000     0.0000     0.0000
238 Q      0.0000     4.0000     4.0000     0.0000     0.0000     0.0000
239 Q      0.0000     4.0000     4.0000     0.0000     0.0000     0.0000
240 Q      0.0000     4.0000     4.0000     0.0000     0.0000     0.0000
241 Q      0.0000     4.0000     4.0000     0.0000     0.0000     0.0000
242 Q      0.0000     4.0000     4.0000     0.0000     0.0000     0.0000
243 Q      0.0000     4.0000     4.0000     0.0000     0.0000     0.0000
244 Q      0.0000     4.0000     4.0000     0.0000     0.0000     0.0000
245 Q      0.0000     4.0000     4.0000     0.0000     0.0000     0.0000
246 Q      0.0000     4.0000     4.0000     0.0000     0.0000     0.0000
247 Q      0.0000     4.0000     4.0000     0.0000     0.0000     0.0000
248 Q      0.0000     4.0000     4.0000     0.0000     0.0000     0.0000
249 Q      0.0000     4.0000     4.0000     0.0000     0.0000     0.0000
250 Q      0.0000     4.0000     4.0000     0.0000     0.0000     0.0000
251 Q      0.0000     4.0000     4.0000     0.0000     0.0000     0.0000
252 Q      0.0000     4.0000     4.0000     0.0000     0.0000     0.0000
253 Q      0.0000     4.0000     4.0000     0.0000     0.0000     0.0000
254 Q      0.0000     4.0000     4.0000     0.0000     0.0000     0.0000
255 Q      0.0000     4.0000     4.0000     0.0000     0.0000     0.0000

  Mayer bond orders larger than 0.100000
B(  0-O ,  4-O ) :  -0.1529 B(  1-Ti,  2-Ti) :   0.3806 B(  1-Ti,  3-Ti) :   0.4308 
B(  1-Ti,  4-O ) :   0.5812 B(  1-Ti,  9-O ) :   0.3281 B(  1-Ti, 10-O ) :   0.3281 
B(  1-Ti, 13-O ) :   0.8482 B(  1-Ti, 21-O ) :   0.3390 B(  1-Ti, 36-O ) :   0.1082 
B(  1-Ti, 37-O ) :   0.1082 B(  2-Ti,  3-Ti) :   0.4308 B(  2-Ti,  4-O ) :   0.5812 
B(  2-Ti, 11-O ) :   0.3281 B(  2-Ti, 12-O ) :   0.3281 B(  2-Ti, 14-O ) :   0.8482 
B(  2-Ti, 22-O ) :   0.3390 B(  2-Ti, 38-O ) :   0.1082 B(  2-Ti, 39-O ) :   0.1082 
B(  3-Ti,  5-O ) :   0.5778 B(  3-Ti,  6-O ) :   0.5778 B(  3-Ti,  7-O ) :   0.5778 
B(  3-Ti,  8-O ) :   0.5778 B(  3-Ti, 13-O ) :  -0.1286 B(  3-Ti, 14-O ) :  -0.1286 
B(  3-Ti, 23-O ) :  -0.3281 B(  3-Ti, 32-O ) :  -0.2625 B(  3-Ti, 33-O ) :  -0.2625 
B(  3-Ti, 40-O ) :   0.4050 B(  3-Ti, 41-O ) :   0.4050 B(  3-Ti, 46-O ) :   0.1084 
B(  3-Ti, 47-O ) :   0.1084 B(  3-Ti, 48-O ) :   0.1084 B(  3-Ti, 49-O ) :   0.1084 
B(  5-O , 19-Ti) :   0.8031 B(  5-O , 24-Ti) :   0.9633 B(  6-O , 19-Ti) :   0.8031 
B(  6-O , 25-Ti) :   0.9633 B(  7-O , 20-Ti) :   0.8031 B(  7-O , 26-Ti) :   0.9633 
B(  8-O , 20-Ti) :   0.8031 B(  8-O , 27-Ti) :   0.9633 B(  9-O , 17-Ti) :   0.8846 
B(  9-O , 36-O ) :  -0.1267 B( 10-O , 18-Ti) :   0.8846 B( 10-O , 37-O ) :  -0.1267 
B( 11-O , 18-Ti) :   0.8846 B( 11-O , 38-O ) :  -0.1267 B( 12-O , 17-Ti) :   0.8846 
B( 12-O , 39-O ) :  -0.1267 B( 13-O , 19-Ti) :   0.4449 B( 13-O , 21-O ) :  -0.1335 
B( 14-O , 20-Ti) :   0.4449 B( 14-O , 22-O ) :  -0.1335 B( 15-O , 17-Ti) :   0.7919 
B( 15-O , 24-Ti) :   0.8002 B( 15-O , 27-Ti) :   0.8002 B( 16-O , 18-Ti) :   0.7919 
B( 16-O , 25-Ti) :   0.8002 B( 16-O , 26-Ti) :   0.8002 B( 17-Ti, 24-Ti) :   0.1209 
B( 17-Ti, 27-Ti) :   0.1209 B( 17-Ti, 28-O ) :   0.2603 B( 17-Ti, 31-O ) :   0.2603 
B( 17-Ti, 34-O ) :   0.3478 B( 17-Ti, 36-O ) :   0.4956 B( 17-Ti, 39-O ) :   0.4956 
B( 18-Ti, 25-Ti) :   0.1209 B( 18-Ti, 26-Ti) :   0.1209 B( 18-Ti, 29-O ) :   0.2603 
B( 18-Ti, 30-O ) :   0.2603 B( 18-Ti, 35-O ) :   0.3478 B( 18-Ti, 37-O ) :   0.4956 
B( 18-Ti, 38-O ) :   0.4956 B( 19-Ti, 23-O ) :   0.2069 B( 19-Ti, 42-O ) :   0.2275 
B( 19-Ti, 43-O ) :   0.2275 B( 20-Ti, 23-O ) :   0.2069 B( 20-Ti, 44-O ) :   0.2275 
B( 20-Ti, 45-O ) :   0.2275 B( 24-Ti, 27-Ti) :   0.1452 B( 24-Ti, 32-O ) :   0.6766 
B( 24-Ti, 42-O ) :   0.2613 B( 24-Ti, 46-O ) :   0.2793 B( 24-Ti, 50-O ) :   0.3319 
B( 24-Ti, 53-O ) :   0.1897 B( 25-Ti, 26-Ti) :   0.1452 B( 25-Ti, 33-O ) :   0.6766 
B( 25-Ti, 43-O ) :   0.2613 B( 25-Ti, 47-O ) :   0.2793 B( 25-Ti, 51-O ) :   0.3319 
B( 25-Ti, 52-O ) :   0.1897 B( 26-Ti, 33-O ) :   0.6766 B( 26-Ti, 44-O ) :   0.2613 
B( 26-Ti, 48-O ) :   0.2793 B( 26-Ti, 51-O ) :   0.1897 B( 26-Ti, 52-O ) :   0.3319 
B( 27-Ti, 32-O ) :   0.6766 B( 27-Ti, 45-O ) :   0.2613 B( 27-Ti, 49-O ) :   0.2793 
B( 27-Ti, 50-O ) :   0.1897 B( 27-Ti, 53-O ) :   0.3319 

-------
TIMINGS
-------

Total SCF time: 0 days 0 hours 14 min 29 sec 

Total time                  ....     869.147 sec
Sum of individual times     ....     829.299 sec  ( 95.4%)

Fock matrix formation       ....     571.120 sec  ( 65.7%)
  Split-RI-J                ....      70.421 sec  ( 12.3% of F)
  XC integration            ....     220.892 sec  ( 38.7% of F)
    Basis function eval.    ....      23.778 sec  ( 10.8% of XC)
    Density eval.           ....     111.002 sec  ( 50.3% of XC)
    XC-Functional eval.     ....       2.085 sec  (  0.9% of XC)
    XC-Potential eval.      ....      55.756 sec  ( 25.2% of XC)
Diagonalization             ....      89.867 sec  ( 10.3%)
Density matrix formation    ....       9.891 sec  (  1.1%)
Population analysis         ....       4.733 sec  (  0.5%)
Initial guess               ....       5.456 sec  (  0.6%)
Orbital Transformation      ....      49.142 sec  (  5.7%)
Orbital Orthonormalization  ....       0.000 sec  (  0.0%)
DIIS solution               ....      96.409 sec  ( 11.1%)
Grid generation             ....       2.567 sec  (  0.3%)

Maximum memory used throughout the entire SCF-calculation: 494.6 MB

-------------------------   --------------------
FINAL SINGLE POINTENERGY    -28527.149611822173
-------------------------   --------------------


                            ***************************************
                            *     ORCA property calculations      *
                            ***************************************

                                    ---------------------
                                    Active property flags
                                    ---------------------
   (+) Dipole Moment


------------------------------------------------------------------------------
                       ORCA ELECTRIC PROPERTIES CALCULATION
------------------------------------------------------------------------------

Dipole Moment Calculation                       ... on
Quadrupole Moment Calculation                   ... off
Polarizability Calculation                      ... off
GBWName                                         ... orca.gbw
Electron density                                ... orca.scfp
The origin for moment calculation is the CENTER OF MASS  = ( 0.000000,  0.000000  1.549509)

-------------
DIPOLE MOMENT
-------------
                                X             Y             Z
Electronic contribution:      0.00000      -0.00000      -1.98216
Nuclear contribution   :      0.00000       0.00000    -192.68043
                        -----------------------------------------
Total Dipole Moment    :      0.00000      -0.00000    -194.66259
                        -----------------------------------------
Magnitude (a.u.)       :    194.66259
Magnitude (Debye)      :    494.79298



--------------------
Rotational spectrum 
--------------------
 
Rotational constants in cm-1:     0.001773     0.001278     0.001187 
Rotational constants in MHz :    53.151298    38.316447    35.599172 

 Dipole components along the rotational axes: 
x,y,z [a.u.] :     0.000000    -0.000000  -194.662588 
x,y,z [Debye]:     0.000000    -0.000000  -494.792977 

 

Timings for individual modules:

Sum of individual times         ...     1567.673 sec (=  26.128 min)
GTO integral calculation        ...      696.410 sec (=  11.607 min)  44.4 %
SCF iterations                  ...      871.262 sec (=  14.521 min)  55.6 %
                             ****ORCA TERMINATED NORMALLY****
TOTAL RUN TIME: 0 days 0 hours 26 minutes 16 seconds 506 msec
