 **********************************************************************
                          MRCC program system
 **********************************************************************
 
                              Written by
 Mihaly Kallay, Peter R. Nagy, David Mester, Zoltan Rolik, Gyula Samu,
   Jozsef Csontos, Jozsef Csoka, P. Bernat Szabo, Laszlo Gyevi-Nagy,
    Bence Hegely, Istvan Ladjanszki, Lorant Szegedy, Bence Ladoczki,
       Klara Petrov, Mate Farkas, Pal D. Mezei, and Adam Ganyecz
 
        Department of Physical Chemistry and Materials Science
            Budapest University of Technology and Economics
                  Budapest P.O.Box 91, H-1521 Hungary
 
                              www.mrcc.hu
 
                    Release date: February 22, 2020

 ************************ 2021-12-04 23:37:52 *************************
 Executing minp...

 Reading input from MINP...
 
 Input file:
 
calc=LNO-CCSD(T)
scftype=rhf
verbosity=3
mem=490GB
symm=off
unit=angs
scfiguess=small
scfmaxit=1000
scfalg=locfit1

lcorthr=Tight
ccmaxit=400
usedisk=0
ccsdalg=dfdirect
ccsdthreads=4
ccsdmkl=thr
ptthreads=4

charge=-18
core=29

basis=special
bse_AVQZ
bse_CVQZ_g
bse_CVQZ_g
bse_CVQZ_g
bse_AVQZ
bse_AVQZ
bse_AVQZ
bse_AVQZ
bse_AVQZ
bse_AVQZ
bse_AVQZ
bse_AVQZ
bse_AVQZ
bse_AVQZ
bse_AVQZ
bse_AVQZ
bse_AVQZ
bse_AVQZ
nothing
nothing
nothing
nothing
nothing
nothing
nothing
nothing
nothing
nothing
nothing
nothing
nothing
nothing
nothing
nothing
nothing
nothing
nothing
nothing
nothing
nothing
nothing
nothing
nothing
nothing
nothing
nothing
nothing
nothing
nothing
nothing
nothing
nothing
nothing
nothing
nothing
nothing
nothing
nothing
nothing
nothing
nothing
nothing
nothing
nothing
nothing
nothing
nothing
nothing
nothing
nothing
nothing
nothing
nothing
nothing
nothing
nothing
nothing
nothing
nothing
nothing
nothing
nothing
nothing
nothing
nothing
nothing
nothing
nothing
nothing
nothing
nothing
nothing
nothing
nothing
nothing
nothing
nothing
nothing
nothing
nothing
nothing
nothing
nothing
nothing
nothing
nothing
nothing
nothing
nothing
nothing
nothing
nothing
nothing
nothing
nothing
nothing
nothing
nothing
nothing
nothing
nothing
nothing
nothing
nothing
nothing
nothing
nothing
nothing
nothing
nothing
nothing
nothing
nothing
nothing
nothing
nothing
nothing
nothing
nothing
nothing
nothing
nothing
nothing
nothing

basis_sm=special
STO-3G
STO-3G
STO-3G
STO-3G
STO-3G
STO-3G
STO-3G
STO-3G
STO-3G
STO-3G
STO-3G
STO-3G
STO-3G
STO-3G
STO-3G
STO-3G
STO-3G
STO-3G
nothing
nothing
nothing
nothing
nothing
nothing
nothing
nothing
nothing
nothing
nothing
nothing
nothing
nothing
nothing
nothing
nothing
nothing
nothing
nothing
nothing
nothing
nothing
nothing
nothing
nothing
nothing
nothing
nothing
nothing
nothing
nothing
nothing
nothing
nothing
nothing
nothing
nothing
nothing
nothing
nothing
nothing
nothing
nothing
nothing
nothing
nothing
nothing
nothing
nothing
nothing
nothing
nothing
nothing
nothing
nothing
nothing
nothing
nothing
nothing
nothing
nothing
nothing
nothing
nothing
nothing
nothing
nothing
nothing
nothing
nothing
nothing
nothing
nothing
nothing
nothing
nothing
nothing
nothing
nothing
nothing
nothing
nothing
nothing
nothing
nothing
nothing
nothing
nothing
nothing
nothing
nothing
nothing
nothing
nothing
nothing
nothing
nothing
nothing
nothing
nothing
nothing
nothing
nothing
nothing
nothing
nothing
nothing
nothing
nothing
nothing
nothing
nothing
nothing
nothing
nothing
nothing
nothing
nothing
nothing
nothing
nothing
nothing
nothing
nothing
nothing

dfbasis_scf=special
bse_AVQZ_autoaux
bse_CVQZ_g_autoaux
bse_CVQZ_g_autoaux
bse_CVQZ_g_autoaux
bse_AVQZ_autoaux
bse_AVQZ_autoaux
bse_AVQZ_autoaux
bse_AVQZ_autoaux
bse_AVQZ_autoaux
bse_AVQZ_autoaux
bse_AVQZ_autoaux
bse_AVQZ_autoaux
bse_AVQZ_autoaux
bse_AVQZ_autoaux
bse_AVQZ_autoaux
bse_AVQZ_autoaux
bse_AVQZ_autoaux
bse_AVQZ_autoaux
nothing
nothing
nothing
nothing
nothing
nothing
nothing
nothing
nothing
nothing
nothing
nothing
nothing
nothing
nothing
nothing
nothing
nothing
nothing
nothing
nothing
nothing
nothing
nothing
nothing
nothing
nothing
nothing
nothing
nothing
nothing
nothing
nothing
nothing
nothing
nothing
nothing
nothing
nothing
nothing
nothing
nothing
nothing
nothing
nothing
nothing
nothing
nothing
nothing
nothing
nothing
nothing
nothing
nothing
nothing
nothing
nothing
nothing
nothing
nothing
nothing
nothing
nothing
nothing
nothing
nothing
nothing
nothing
nothing
nothing
nothing
nothing
nothing
nothing
nothing
nothing
nothing
nothing
nothing
nothing
nothing
nothing
nothing
nothing
nothing
nothing
nothing
nothing
nothing
nothing
nothing
nothing
nothing
nothing
nothing
nothing
nothing
nothing
nothing
nothing
nothing
nothing
nothing
nothing
nothing
nothing
nothing
nothing
nothing
nothing
nothing
nothing
nothing
nothing
nothing
nothing
nothing
nothing
nothing
nothing
nothing
nothing
nothing
nothing
nothing
nothing

dfbasis_cor=special
bse_AVQZ_autoaux
bse_CVQZ_g_autoaux
bse_CVQZ_g_autoaux
bse_CVQZ_g_autoaux
bse_AVQZ_autoaux
bse_AVQZ_autoaux
bse_AVQZ_autoaux
bse_AVQZ_autoaux
bse_AVQZ_autoaux
bse_AVQZ_autoaux
bse_AVQZ_autoaux
bse_AVQZ_autoaux
bse_AVQZ_autoaux
bse_AVQZ_autoaux
bse_AVQZ_autoaux
bse_AVQZ_autoaux
bse_AVQZ_autoaux
bse_AVQZ_autoaux
nothing
nothing
nothing
nothing
nothing
nothing
nothing
nothing
nothing
nothing
nothing
nothing
nothing
nothing
nothing
nothing
nothing
nothing
nothing
nothing
nothing
nothing
nothing
nothing
nothing
nothing
nothing
nothing
nothing
nothing
nothing
nothing
nothing
nothing
nothing
nothing
nothing
nothing
nothing
nothing
nothing
nothing
nothing
nothing
nothing
nothing
nothing
nothing
nothing
nothing
nothing
nothing
nothing
nothing
nothing
nothing
nothing
nothing
nothing
nothing
nothing
nothing
nothing
nothing
nothing
nothing
nothing
nothing
nothing
nothing
nothing
nothing
nothing
nothing
nothing
nothing
nothing
nothing
nothing
nothing
nothing
nothing
nothing
nothing
nothing
nothing
nothing
nothing
nothing
nothing
nothing
nothing
nothing
nothing
nothing
nothing
nothing
nothing
nothing
nothing
nothing
nothing
nothing
nothing
nothing
nothing
nothing
nothing
nothing
nothing
nothing
nothing
nothing
nothing
nothing
nothing
nothing
nothing
nothing
nothing
nothing
nothing
nothing
nothing
nothing
nothing

ecp=special
none
none
none
none
none
none
none
none
none
none
none
none
none
none
none
none
none
none
ECP-22
ECP-22
ECP-22
ECP-22
ECP-22
ECP-22
ECP-22
ECP-22
ECP-22
ECP-22
ECP-22
ECP-22
ECP-22
ECP-22
ECP-22
ECP-22
ECP-22
ECP-22
ECP-22
ECP-22
ECP-22
ECP-22
ECP-22
ECP-22
ECP-22
ECP-22
ECP-22
ECP-22
ECP-22
ECP-22
ECP-22
ECP-22
ECP-22
ECP-22
ECP-22
ECP-22
ECP-22
ECP-22
ECP-22
ECP-22
ECP-22
ECP-22
ECP-22
ECP-22
ECP-22
ECP-22
ECP-22
ECP-22
ECP-22
ECP-22
ECP-22
ECP-22
ECP-22
ECP-22
ECP-22
ECP-22
ECP-22
ECP-22
ECP-22
ECP-22
ECP-22
ECP-22
ECP-22
ECP-22
ECP-22
ECP-22
ECP-22
ECP-22
ECP-22
ECP-22
ECP-22
ECP-22
ECP-22
ECP-22
ECP-22
ECP-22
ECP-22
ECP-22
ECP-22
ECP-22
ECP-22
ECP-22
ECP-22
ECP-22
ECP-22
ECP-22
ECP-22
ECP-22
ECP-22
ECP-22
ECP-22
ECP-22
ECP-22
ECP-22
ECP-22
ECP-22
ECP-22
ECP-22
ECP-22
ECP-22
ECP-22
ECP-22
ECP-22
ECP-22
ECP-22
ECP-22
ECP-22
ECP-22
ECP-22
ECP-22
ECP-22
ECP-22
ECP-22
ECP-22
ECP-22
ECP-22
ECP-22
ECP-22
ECP-22
ECP-22
ECP-22
ECP-22
ECP-22
ECP-22
ECP-22
ECP-22

unit=angs
geom=xyz
144
Ti3O15ECP126
O     0.00000000000    0.00000000000    0.00000000000
Ti    0.00000000000    1.48054676798   -1.27209143018
Ti    0.00000000000   -1.48054676798   -1.27209143018
Ti    0.00000000000    0.00000000000    1.98192821856
O    -0.00000000000    0.00000000000   -2.54418286035
O    -1.27209143018    1.48054676798    1.98192821856
O     1.27209143018    1.48054676798    1.98192821856
O     1.27209143018   -1.48054676798    1.98192821856
O    -1.27209143018   -1.48054676798    1.98192821856
O    -1.98192821856    1.48054676798   -1.27209143018
O     1.98192821856    1.48054676798   -1.27209143018
O     1.98192821856   -1.48054676798   -1.27209143018
O    -1.98192821856   -1.48054676798   -1.27209143018
O     0.00000000000    2.96109353596    0.00000000000
O     0.00000000000   -2.96109353596    0.00000000000
O    -0.00000000000    2.96109353596   -2.54418286035
O    -0.00000000000   -2.96109353596   -2.54418286035
O    -0.00000000000    0.00000000000    3.96385643712
Ti   -3.25401964873    0.00000000000   -1.27209143018
Ti    3.25401964873    0.00000000000   -1.27209143018
Ti    0.00000000000    2.96109353596    1.98192821856
Ti    0.00000000000   -2.96109353596    1.98192821856
Ti   -3.25401964873    1.48054676798    1.98192821856
Ti    3.25401964873    1.48054676798    1.98192821856
Ti    3.25401964873   -1.48054676798    1.98192821856
Ti   -3.25401964873   -1.48054676798    1.98192821856
Ti    0.00000000000    0.00000000000   -4.52611107891
Ti   -3.25401964873    2.96109353596   -1.27209143018
Ti    3.25401964873    2.96109353596   -1.27209143018
Ti    3.25401964873   -2.96109353596   -1.27209143018
Ti   -3.25401964873   -2.96109353596   -1.27209143018
Ti    0.00000000000    4.44164030394   -1.27209143018
Ti    0.00000000000   -4.44164030394   -1.27209143018
Ti    0.00000000000    2.96109353596   -4.52611107891
Ti    0.00000000000   -2.96109353596   -4.52611107891
Ti    0.00000000000    1.48054676798    5.23594786729
Ti    0.00000000000   -1.48054676798    5.23594786729
Ti   -3.25401964873    1.48054676798   -4.52611107891
Ti    3.25401964873    1.48054676798   -4.52611107891
Ti    3.25401964873   -1.48054676798   -4.52611107891
Ti   -3.25401964873   -1.48054676798   -4.52611107891
Ti   -3.25401964873    4.44164030394    1.98192821856
Ti    3.25401964873    4.44164030394    1.98192821856
Ti    3.25401964873   -4.44164030394    1.98192821856
Ti   -3.25401964873   -4.44164030394    1.98192821856
Ti   -3.25401964873    0.00000000000    5.23594786729
Ti    3.25401964873    0.00000000000    5.23594786729
Ti    0.00000000000    5.92218707193    1.98192821856
Ti    0.00000000000   -5.92218707193    1.98192821856
Ti   -6.50803929747    1.48054676798   -1.27209143018
Ti    6.50803929747    1.48054676798   -1.27209143018
Ti    6.50803929747   -1.48054676798   -1.27209143018
Ti   -6.50803929747   -1.48054676798   -1.27209143018
Ti   -6.50803929747    0.00000000000    1.98192821856
Ti    6.50803929747    0.00000000000    1.98192821856
Ti   -3.25401964873    2.96109353596    5.23594786729
Ti    3.25401964873    2.96109353596    5.23594786729
Ti    3.25401964873   -2.96109353596    5.23594786729
Ti   -3.25401964873   -2.96109353596    5.23594786729
Ti    0.00000000000    4.44164030394    5.23594786729
Ti    0.00000000000   -4.44164030394    5.23594786729
Ti   -3.25401964873    5.92218707193   -1.27209143018
Ti    3.25401964873    5.92218707193   -1.27209143018
Ti    3.25401964873   -5.92218707193   -1.27209143018
Ti   -3.25401964873   -5.92218707193   -1.27209143018
Ti   -3.25401964873    4.44164030394   -4.52611107891
Ti    3.25401964873    4.44164030394   -4.52611107891
Ti    3.25401964873   -4.44164030394   -4.52611107891
Ti   -3.25401964873   -4.44164030394   -4.52611107891
Ti   -6.50803929747    2.96109353596    1.98192821856
Ti    6.50803929747    2.96109353596    1.98192821856
Ti    6.50803929747   -2.96109353596    1.98192821856
Ti   -6.50803929747   -2.96109353596    1.98192821856
Ti    0.00000000000    5.92218707193   -4.52611107891
Ti    0.00000000000   -5.92218707193   -4.52611107891
Ti    0.00000000000    7.40273383991   -1.27209143018
Ti    0.00000000000   -7.40273383991   -1.27209143018
Ti    0.00000000000    1.48054676798   -7.78013072764
Ti    0.00000000000   -1.48054676798   -7.78013072764
Ti   -6.50803929747    0.00000000000   -4.52611107891
Ti    6.50803929747    0.00000000000   -4.52611107891
Ti   -6.50803929747    4.44164030394   -1.27209143018
Ti    6.50803929747    4.44164030394   -1.27209143018
Ti    6.50803929747   -4.44164030394   -1.27209143018
Ti   -6.50803929747   -4.44164030394   -1.27209143018
Ti   -3.25401964873    7.40273383991    1.98192821856
Ti    3.25401964873    7.40273383991    1.98192821856
Ti    3.25401964873   -7.40273383991    1.98192821856
Ti   -3.25401964873   -7.40273383991    1.98192821856
Ti   -3.25401964873    0.00000000000   -7.78013072764
Ti    3.25401964873    0.00000000000   -7.78013072764
Ti   -6.50803929747    2.96109353596   -4.52611107891
Ti    6.50803929747    2.96109353596   -4.52611107891
Ti    6.50803929747   -2.96109353596   -4.52611107891
Ti   -6.50803929747   -2.96109353596   -4.52611107891
Ti   -6.50803929747    1.48054676798    5.23594786729
Ti    6.50803929747    1.48054676798    5.23594786729
Ti    6.50803929747   -1.48054676798    5.23594786729
Ti   -6.50803929747   -1.48054676798    5.23594786729
Ti    0.00000000000    0.00000000000    8.48996751602
Ti   -3.25401964873    5.92218707193    5.23594786729
Ti    3.25401964873    5.92218707193    5.23594786729
Ti    3.25401964873   -5.92218707193    5.23594786729
Ti   -3.25401964873   -5.92218707193    5.23594786729
Ti   -3.25401964873    2.96109353596   -7.78013072764
Ti    3.25401964873    2.96109353596   -7.78013072764
Ti    3.25401964873   -2.96109353596   -7.78013072764
Ti   -3.25401964873   -2.96109353596   -7.78013072764
Ti    0.00000000000    4.44164030394   -7.78013072764
Ti    0.00000000000   -4.44164030394   -7.78013072764
Ti    0.00000000000    2.96109353596    8.48996751602
Ti    0.00000000000   -2.96109353596    8.48996751602
Ti   -6.50803929747    5.92218707193    1.98192821856
Ti    6.50803929747    5.92218707193    1.98192821856
Ti    6.50803929747   -5.92218707193    1.98192821856
Ti   -6.50803929747   -5.92218707193    1.98192821856
Ti    0.00000000000    7.40273383991    5.23594786729
Ti    0.00000000000   -7.40273383991    5.23594786729
Ti    0.00000000000    8.88328060789    1.98192821856
Ti    0.00000000000   -8.88328060789    1.98192821856
Ti   -3.25401964873    1.48054676798    8.48996751602
Ti    3.25401964873    1.48054676798    8.48996751602
Ti    3.25401964873   -1.48054676798    8.48996751602
Ti   -3.25401964873   -1.48054676798    8.48996751602
Ti   -3.25401964873    7.40273383991   -4.52611107891
Ti    3.25401964873    7.40273383991   -4.52611107891
Ti    3.25401964873   -7.40273383991   -4.52611107891
Ti   -3.25401964873   -7.40273383991   -4.52611107891
Ti   -6.50803929747    4.44164030394    5.23594786729
Ti    6.50803929747    4.44164030394    5.23594786729
Ti    6.50803929747   -4.44164030394    5.23594786729
Ti   -6.50803929747   -4.44164030394    5.23594786729
Ti   -3.25401964873    8.88328060789   -1.27209143018
Ti    3.25401964873    8.88328060789   -1.27209143018
Ti    3.25401964873   -8.88328060789   -1.27209143018
Ti   -3.25401964873   -8.88328060789   -1.27209143018
Ti    0.00000000000    8.88328060789   -4.52611107891
Ti    0.00000000000   -8.88328060789   -4.52611107891
Ti   -3.25401964873    5.92218707193   -7.78013072764
Ti    3.25401964873    5.92218707193   -7.78013072764
Ti    3.25401964873   -5.92218707193   -7.78013072764
Ti   -3.25401964873   -5.92218707193   -7.78013072764
Ti    0.00000000000    7.40273383991   -7.78013072764
Ti    0.00000000000   -7.40273383991   -7.78013072764

ghost=serialno
1

qmmm=Amber
pointcharges
10820
     -3.25401964873    0.00000000000    0.70983678838   -2.00000000000
      3.25401964873    0.00000000000    0.70983678838   -2.00000000000
     -3.25401964873    0.00000000000   -1.27209143018    4.00000000000
      3.25401964873    0.00000000000   -1.27209143018    4.00000000000
      0.00000000000    2.96109353596    1.98192821856    4.00000000000
      0.00000000000   -2.96109353596    1.98192821856    4.00000000000
     -3.25401964873    1.48054676798    1.98192821856    4.00000000000
      3.25401964873    1.48054676798    1.98192821856    4.00000000000
      3.25401964873   -1.48054676798    1.98192821856    4.00000000000
     -3.25401964873   -1.48054676798    1.98192821856    4.00000000000
     -3.25401964873    2.96109353596    0.70983678838   -2.00000000000
      3.25401964873    2.96109353596    0.70983678838   -2.00000000000
      3.25401964873   -2.96109353596    0.70983678838   -2.00000000000
     -3.25401964873   -2.96109353596    0.70983678838   -2.00000000000
      0.00000000000    0.00000000000   -4.52611107891    4.00000000000
     -3.25401964873    2.96109353596   -1.27209143018    4.00000000000
      3.25401964873    2.96109353596   -1.27209143018    4.00000000000
      3.25401964873   -2.96109353596   -1.27209143018    4.00000000000
     -3.25401964873   -2.96109353596   -1.27209143018    4.00000000000
     -3.25401964873    0.00000000000    3.25401964873   -2.00000000000
      3.25401964873    0.00000000000    3.25401964873   -2.00000000000
     -3.25401964873    0.00000000000   -3.25401964873   -2.00000000000
      3.25401964873    0.00000000000   -3.25401964873   -2.00000000000
      0.00000000000    4.44164030394   -1.27209143018    4.00000000000
      0.00000000000   -4.44164030394   -1.27209143018    4.00000000000
     -4.52611107891    1.48054676798   -1.27209143018   -2.00000000000
      4.52611107891    1.48054676798   -1.27209143018   -2.00000000000
      4.52611107891   -1.48054676798   -1.27209143018   -2.00000000000
     -4.52611107891   -1.48054676798   -1.27209143018   -2.00000000000
     -1.27209143018    1.48054676798   -4.52611107891   -2.00000000000
      1.27209143018    1.48054676798   -4.52611107891   -2.00000000000
      1.27209143018   -1.48054676798   -4.52611107891   -2.00000000000
     -1.27209143018   -1.48054676798   -4.52611107891   -2.00000000000
     -0.00000000000    2.96109353596    3.96385643712   -2.00000000000
     -0.00000000000   -2.96109353596    3.96385643712   -2.00000000000
     -1.27209143018    4.44164030394    1.98192821856   -2.00000000000
      1.27209143018    4.44164030394    1.98192821856   -2.00000000000
      1.27209143018   -4.44164030394    1.98192821856   -2.00000000000
     -1.27209143018   -4.44164030394    1.98192821856   -2.00000000000
     -1.98192821856    4.44164030394   -1.27209143018   -2.00000000000
      1.98192821856    4.44164030394   -1.27209143018   -2.00000000000
      1.98192821856   -4.44164030394   -1.27209143018   -2.00000000000
     -1.98192821856   -4.44164030394   -1.27209143018   -2.00000000000
      0.00000000000    2.96109353596   -4.52611107891    4.00000000000
      0.00000000000   -2.96109353596   -4.52611107891    4.00000000000
      0.00000000000    1.48054676798    5.23594786729    4.00000000000
      0.00000000000   -1.48054676798    5.23594786729    4.00000000000
     -3.25401964873    2.96109353596    3.25401964873   -2.00000000000
      3.25401964873    2.96109353596    3.25401964873   -2.00000000000
      3.25401964873   -2.96109353596    3.25401964873   -2.00000000000
     -3.25401964873   -2.96109353596    3.25401964873   -2.00000000000
     -3.25401964873    2.96109353596   -3.25401964873   -2.00000000000
      3.25401964873    2.96109353596   -3.25401964873   -2.00000000000
      3.25401964873   -2.96109353596   -3.25401964873   -2.00000000000
     -3.25401964873   -2.96109353596   -3.25401964873   -2.00000000000
     -3.25401964873    1.48054676798   -4.52611107891    4.00000000000
      3.25401964873    1.48054676798   -4.52611107891    4.00000000000
      3.25401964873   -1.48054676798   -4.52611107891    4.00000000000
     -3.25401964873   -1.48054676798   -4.52611107891    4.00000000000
     -1.98192821856    1.48054676798    5.23594786729   -2.00000000000
      1.98192821856    1.48054676798    5.23594786729   -2.00000000000
      1.98192821856   -1.48054676798    5.23594786729   -2.00000000000
     -1.98192821856   -1.48054676798    5.23594786729   -2.00000000000
     -5.23594786729    1.48054676798    1.98192821856   -2.00000000000
      5.23594786729    1.48054676798    1.98192821856   -2.00000000000
      5.23594786729   -1.48054676798    1.98192821856   -2.00000000000
     -5.23594786729   -1.48054676798    1.98192821856   -2.00000000000
     -3.25401964873    4.44164030394    1.98192821856    4.00000000000
      3.25401964873    4.44164030394    1.98192821856    4.00000000000
      3.25401964873   -4.44164030394    1.98192821856    4.00000000000
     -3.25401964873   -4.44164030394    1.98192821856    4.00000000000
      0.00000000000    5.92218707193    0.00000000000   -2.00000000000
      0.00000000000   -5.92218707193    0.00000000000   -2.00000000000
     -3.25401964873    0.00000000000    5.23594786729    4.00000000000
      3.25401964873    0.00000000000    5.23594786729    4.00000000000
      0.00000000000    5.92218707193    1.98192821856    4.00000000000
      0.00000000000   -5.92218707193    1.98192821856    4.00000000000
     -0.00000000000    5.92218707193   -2.54418286035   -2.00000000000
     -0.00000000000   -5.92218707193   -2.54418286035   -2.00000000000
     -4.52611107891    4.44164030394   -1.27209143018   -2.00000000000
      4.52611107891    4.44164030394   -1.27209143018   -2.00000000000
      4.52611107891   -4.44164030394   -1.27209143018   -2.00000000000
     -4.52611107891   -4.44164030394   -1.27209143018   -2.00000000000
     -1.27209143018    4.44164030394   -4.52611107891   -2.00000000000
      1.27209143018    4.44164030394   -4.52611107891   -2.00000000000
      1.27209143018   -4.44164030394   -4.52611107891   -2.00000000000
     -1.27209143018   -4.44164030394   -4.52611107891   -2.00000000000
      0.00000000000    0.00000000000    6.50803929747   -2.00000000000
     -6.50803929747    0.00000000000    0.00000000000   -2.00000000000
      6.50803929747    0.00000000000    0.00000000000   -2.00000000000
      0.00000000000    0.00000000000   -6.50803929747   -2.00000000000
     -3.25401964873    0.00000000000   -5.79820250908   -2.00000000000
      3.25401964873    0.00000000000   -5.79820250908   -2.00000000000
     -3.25401964873    5.92218707193    0.70983678838   -2.00000000000
      3.25401964873    5.92218707193    0.70983678838   -2.00000000000
      3.25401964873   -5.92218707193    0.70983678838   -2.00000000000
     -3.25401964873   -5.92218707193    0.70983678838   -2.00000000000
     -6.50803929747    1.48054676798   -1.27209143018    4.00000000000
      6.50803929747    1.48054676798   -1.27209143018    4.00000000000
      6.50803929747   -1.48054676798   -1.27209143018    4.00000000000
     -6.50803929747   -1.48054676798   -1.27209143018    4.00000000000
     -6.50803929747    0.00000000000    1.98192821856    4.00000000000
      6.50803929747    0.00000000000    1.98192821856    4.00000000000
     -3.25401964873    2.96109353596    5.23594786729    4.00000000000
      3.25401964873    2.96109353596    5.23594786729    4.00000000000
      3.25401964873   -2.96109353596    5.23594786729    4.00000000000
     -3.25401964873   -2.96109353596    5.23594786729    4.00000000000
      0.00000000000    4.44164030394    5.23594786729    4.00000000000
      0.00000000000   -4.44164030394    5.23594786729    4.00000000000
     -3.25401964873    5.92218707193   -1.27209143018    4.00000000000
      3.25401964873    5.92218707193   -1.27209143018    4.00000000000
      3.25401964873   -5.92218707193   -1.27209143018    4.00000000000
     -3.25401964873   -5.92218707193   -1.27209143018    4.00000000000
     -6.50803929747    0.00000000000   -2.54418286035   -2.00000000000
      6.50803929747    0.00000000000   -2.54418286035   -2.00000000000
     -4.52611107891    1.48054676798    5.23594786729   -2.00000000000
      4.52611107891    1.48054676798    5.23594786729   -2.00000000000
      4.52611107891   -1.48054676798    5.23594786729   -2.00000000000
     -4.52611107891   -1.48054676798    5.23594786729   -2.00000000000
     -5.23594786729    1.48054676798   -4.52611107891   -2.00000000000
      5.23594786729    1.48054676798   -4.52611107891   -2.00000000000
      5.23594786729   -1.48054676798   -4.52611107891   -2.00000000000
     -5.23594786729   -1.48054676798   -4.52611107891   -2.00000000000
     -0.00000000000    5.92218707193    3.96385643712   -2.00000000000
     -0.00000000000   -5.92218707193    3.96385643712   -2.00000000000
     -3.25401964873    4.44164030394   -4.52611107891    4.00000000000
      3.25401964873    4.44164030394   -4.52611107891    4.00000000000
      3.25401964873   -4.44164030394   -4.52611107891    4.00000000000
     -3.25401964873   -4.44164030394   -4.52611107891    4.00000000000
     -1.98192821856    4.44164030394    5.23594786729   -2.00000000000
      1.98192821856    4.44164030394    5.23594786729   -2.00000000000
      1.98192821856   -4.44164030394    5.23594786729   -2.00000000000
     -1.98192821856   -4.44164030394    5.23594786729   -2.00000000000
     -5.23594786729    4.44164030394    1.98192821856   -2.00000000000
      5.23594786729    4.44164030394    1.98192821856   -2.00000000000
      5.23594786729   -4.44164030394    1.98192821856   -2.00000000000
     -5.23594786729   -4.44164030394    1.98192821856   -2.00000000000
      0.00000000000    2.96109353596    6.50803929747   -2.00000000000
      0.00000000000   -2.96109353596    6.50803929747   -2.00000000000
     -6.50803929747    2.96109353596    0.00000000000   -2.00000000000
      6.50803929747    2.96109353596    0.00000000000   -2.00000000000
      6.50803929747   -2.96109353596    0.00000000000   -2.00000000000
     -6.50803929747   -2.96109353596    0.00000000000   -2.00000000000
      0.00000000000    2.96109353596   -6.50803929747   -2.00000000000
      0.00000000000   -2.96109353596   -6.50803929747   -2.00000000000
     -3.25401964873    2.96109353596   -5.79820250908   -2.00000000000
      3.25401964873    2.96109353596   -5.79820250908   -2.00000000000
      3.25401964873   -2.96109353596   -5.79820250908   -2.00000000000
     -3.25401964873   -2.96109353596   -5.79820250908   -2.00000000000
     -6.50803929747    2.96109353596    1.98192821856    4.00000000000
      6.50803929747    2.96109353596    1.98192821856    4.00000000000
      6.50803929747   -2.96109353596    1.98192821856    4.00000000000
     -6.50803929747   -2.96109353596    1.98192821856    4.00000000000
      0.00000000000    5.92218707193   -4.52611107891    4.00000000000
      0.00000000000   -5.92218707193   -4.52611107891    4.00000000000
     -3.25401964873    5.92218707193    3.25401964873   -2.00000000000
      3.25401964873    5.92218707193    3.25401964873   -2.00000000000
      3.25401964873   -5.92218707193    3.25401964873   -2.00000000000
     -3.25401964873   -5.92218707193    3.25401964873   -2.00000000000
     -3.25401964873    5.92218707193   -3.25401964873   -2.00000000000
      3.25401964873    5.92218707193   -3.25401964873   -2.00000000000
      3.25401964873   -5.92218707193   -3.25401964873   -2.00000000000
     -3.25401964873   -5.92218707193   -3.25401964873   -2.00000000000
      0.00000000000    7.40273383991   -1.27209143018    4.00000000000
      0.00000000000   -7.40273383991   -1.27209143018    4.00000000000
     -6.50803929747    2.96109353596   -2.54418286035   -2.00000000000
      6.50803929747    2.96109353596   -2.54418286035   -2.00000000000
      6.50803929747   -2.96109353596   -2.54418286035   -2.00000000000
     -6.50803929747   -2.96109353596   -2.54418286035   -2.00000000000
     -6.50803929747    0.00000000000    3.96385643712   -2.00000000000
      6.50803929747    0.00000000000    3.96385643712   -2.00000000000
     -1.27209143018    7.40273383991    1.98192821856   -2.00000000000
      1.27209143018    7.40273383991    1.98192821856   -2.00000000000
      1.27209143018   -7.40273383991    1.98192821856   -2.00000000000
     -1.27209143018   -7.40273383991    1.98192821856   -2.00000000000
     -1.98192821856    7.40273383991   -1.27209143018   -2.00000000000
      1.98192821856    7.40273383991   -1.27209143018   -2.00000000000
      1.98192821856   -7.40273383991   -1.27209143018   -2.00000000000
     -1.98192821856   -7.40273383991   -1.27209143018   -2.00000000000
     -3.25401964873    0.00000000000    7.21787608585   -2.00000000000
      3.25401964873    0.00000000000    7.21787608585   -2.00000000000
      0.00000000000    1.48054676798   -7.78013072764    4.00000000000
      0.00000000000   -1.48054676798   -7.78013072764    4.00000000000
     -6.50803929747    0.00000000000   -4.52611107891    4.00000000000
      6.50803929747    0.00000000000   -4.52611107891    4.00000000000
     -6.50803929747    4.44164030394   -1.27209143018    4.00000000000
      6.50803929747    4.44164030394   -1.27209143018    4.00000000000
      6.50803929747   -4.44164030394   -1.27209143018    4.00000000000
     -6.50803929747   -4.44164030394   -1.27209143018    4.00000000000
     -7.78013072764    1.48054676798    1.98192821856   -2.00000000000
      7.78013072764    1.48054676798    1.98192821856   -2.00000000000
      7.78013072764   -1.48054676798    1.98192821856   -2.00000000000
     -7.78013072764   -1.48054676798    1.98192821856   -2.00000000000
     -1.98192821856    1.48054676798   -7.78013072764   -2.00000000000
      1.98192821856    1.48054676798   -7.78013072764   -2.00000000000
      1.98192821856   -1.48054676798   -7.78013072764   -2.00000000000
     -1.98192821856   -1.48054676798   -7.78013072764   -2.00000000000
     -6.50803929747    2.96109353596    3.96385643712   -2.00000000000
      6.50803929747    2.96109353596    3.96385643712   -2.00000000000
      6.50803929747   -2.96109353596    3.96385643712   -2.00000000000
     -6.50803929747   -2.96109353596    3.96385643712   -2.00000000000
     -4.52611107891    4.44164030394    5.23594786729   -2.00000000000
      4.52611107891    4.44164030394    5.23594786729   -2.00000000000
      4.52611107891   -4.44164030394    5.23594786729   -2.00000000000
     -4.52611107891   -4.44164030394    5.23594786729   -2.00000000000
     -5.23594786729    4.44164030394   -4.52611107891   -2.00000000000
      5.23594786729    4.44164030394   -4.52611107891   -2.00000000000
      5.23594786729   -4.44164030394   -4.52611107891   -2.00000000000
     -5.23594786729   -4.44164030394   -4.52611107891   -2.00000000000
     -3.25401964873    7.40273383991    1.98192821856    4.00000000000
      3.25401964873    7.40273383991    1.98192821856    4.00000000000
      3.25401964873   -7.40273383991    1.98192821856    4.00000000000
     -3.25401964873   -7.40273383991    1.98192821856    4.00000000000
     -3.25401964873    0.00000000000   -7.78013072764    4.00000000000
      3.25401964873    0.00000000000   -7.78013072764    4.00000000000
     -3.25401964873    2.96109353596    7.21787608585   -2.00000000000
      3.25401964873    2.96109353596    7.21787608585   -2.00000000000
      3.25401964873   -2.96109353596    7.21787608585   -2.00000000000
     -3.25401964873   -2.96109353596    7.21787608585   -2.00000000000
     -6.50803929747    2.96109353596   -4.52611107891    4.00000000000
      6.50803929747    2.96109353596   -4.52611107891    4.00000000000
      6.50803929747   -2.96109353596   -4.52611107891    4.00000000000
     -6.50803929747   -2.96109353596   -4.52611107891    4.00000000000
     -6.50803929747    1.48054676798    5.23594786729    4.00000000000
      6.50803929747    1.48054676798    5.23594786729    4.00000000000
      6.50803929747   -1.48054676798    5.23594786729    4.00000000000
     -6.50803929747   -1.48054676798    5.23594786729    4.00000000000
      0.00000000000    0.00000000000    8.48996751602    4.00000000000
     -3.25401964873    5.92218707193    5.23594786729    4.00000000000
      3.25401964873    5.92218707193    5.23594786729    4.00000000000
      3.25401964873   -5.92218707193    5.23594786729    4.00000000000
     -3.25401964873   -5.92218707193    5.23594786729    4.00000000000
     -1.27209143018    1.48054676798    8.48996751602   -2.00000000000
      1.27209143018    1.48054676798    8.48996751602   -2.00000000000
      1.27209143018   -1.48054676798    8.48996751602   -2.00000000000
     -1.27209143018   -1.48054676798    8.48996751602   -2.00000000000
     -8.48996751602    1.48054676798   -1.27209143018   -2.00000000000
      8.48996751602    1.48054676798   -1.27209143018   -2.00000000000
      8.48996751602   -1.48054676798   -1.27209143018   -2.00000000000
     -8.48996751602   -1.48054676798   -1.27209143018   -2.00000000000
     -4.52611107891    7.40273383991   -1.27209143018   -2.00000000000
      4.52611107891    7.40273383991   -1.27209143018   -2.00000000000
      4.52611107891   -7.40273383991   -1.27209143018   -2.00000000000
     -4.52611107891   -7.40273383991   -1.27209143018   -2.00000000000
     -1.27209143018    7.40273383991   -4.52611107891   -2.00000000000
      1.27209143018    7.40273383991   -4.52611107891   -2.00000000000
      1.27209143018   -7.40273383991   -4.52611107891   -2.00000000000
     -1.27209143018   -7.40273383991   -4.52611107891   -2.00000000000
      0.00000000000    5.92218707193    6.50803929747   -2.00000000000
      0.00000000000   -5.92218707193    6.50803929747   -2.00000000000
     -6.50803929747    5.92218707193    0.00000000000   -2.00000000000
      6.50803929747    5.92218707193    0.00000000000   -2.00000000000
      6.50803929747   -5.92218707193    0.00000000000   -2.00000000000
     -6.50803929747   -5.92218707193    0.00000000000   -2.00000000000
      0.00000000000    5.92218707193   -6.50803929747   -2.00000000000
      0.00000000000   -5.92218707193   -6.50803929747   -2.00000000000
      0.00000000000    8.88328060789    0.00000000000   -2.00000000000
      0.00000000000   -8.88328060789    0.00000000000   -2.00000000000
     -3.25401964873    5.92218707193   -5.79820250908   -2.00000000000
      3.25401964873    5.92218707193   -5.79820250908   -2.00000000000
      3.25401964873   -5.92218707193   -5.79820250908   -2.00000000000
     -3.25401964873   -5.92218707193   -5.79820250908   -2.00000000000
     -3.25401964873    2.96109353596   -7.78013072764    4.00000000000
      3.25401964873    2.96109353596   -7.78013072764    4.00000000000
      3.25401964873   -2.96109353596   -7.78013072764    4.00000000000
     -3.25401964873   -2.96109353596   -7.78013072764    4.00000000000
      0.00000000000    4.44164030394   -7.78013072764    4.00000000000
      0.00000000000   -4.44164030394   -7.78013072764    4.00000000000
      0.00000000000    2.96109353596    8.48996751602    4.00000000000
      0.00000000000   -2.96109353596    8.48996751602    4.00000000000
     -6.50803929747    5.92218707193    1.98192821856    4.00000000000
      6.50803929747    5.92218707193    1.98192821856    4.00000000000
      6.50803929747   -5.92218707193    1.98192821856    4.00000000000
     -6.50803929747   -5.92218707193    1.98192821856    4.00000000000
     -0.00000000000    0.00000000000   -9.05222215782   -2.00000000000
      0.00000000000    7.40273383991    5.23594786729    4.00000000000
      0.00000000000   -7.40273383991    5.23594786729    4.00000000000
      0.00000000000    8.88328060789    1.98192821856    4.00000000000
      0.00000000000   -8.88328060789    1.98192821856    4.00000000000
     -7.78013072764    1.48054676798   -4.52611107891   -2.00000000000
      7.78013072764    1.48054676798   -4.52611107891   -2.00000000000
      7.78013072764   -1.48054676798   -4.52611107891   -2.00000000000
     -7.78013072764   -1.48054676798   -4.52611107891   -2.00000000000
     -4.52611107891    1.48054676798   -7.78013072764   -2.00000000000
      4.52611107891    1.48054676798   -7.78013072764   -2.00000000000
      4.52611107891   -1.48054676798   -7.78013072764   -2.00000000000
     -4.52611107891   -1.48054676798   -7.78013072764   -2.00000000000
     -6.50803929747    5.92218707193   -2.54418286035   -2.00000000000
      6.50803929747    5.92218707193   -2.54418286035   -2.00000000000
      6.50803929747   -5.92218707193   -2.54418286035   -2.00000000000
     -6.50803929747   -5.92218707193   -2.54418286035   -2.00000000000
     -1.98192821856    4.44164030394   -7.78013072764   -2.00000000000
      1.98192821856    4.44164030394   -7.78013072764   -2.00000000000
      1.98192821856   -4.44164030394   -7.78013072764   -2.00000000000
     -1.98192821856   -4.44164030394   -7.78013072764   -2.00000000000
     -6.50803929747    0.00000000000    6.50803929747   -2.00000000000
      6.50803929747    0.00000000000    6.50803929747   -2.00000000000
     -3.25401964873    1.48054676798    8.48996751602    4.00000000000
      3.25401964873    1.48054676798    8.48996751602    4.00000000000
      3.25401964873   -1.48054676798    8.48996751602    4.00000000000
     -3.25401964873   -1.48054676798    8.48996751602    4.00000000000
     -0.00000000000    8.88328060789   -2.54418286035   -2.00000000000
     -0.00000000000   -8.88328060789   -2.54418286035   -2.00000000000
     -3.25401964873    7.40273383991   -4.52611107891    4.00000000000
      3.25401964873    7.40273383991   -4.52611107891    4.00000000000
      3.25401964873   -7.40273383991   -4.52611107891    4.00000000000
     -3.25401964873   -7.40273383991   -4.52611107891    4.00000000000
     -1.98192821856    7.40273383991    5.23594786729   -2.00000000000
      1.98192821856    7.40273383991    5.23594786729   -2.00000000000
      1.98192821856   -7.40273383991    5.23594786729   -2.00000000000
     -1.98192821856   -7.40273383991    5.23594786729   -2.00000000000
     -6.50803929747    4.44164030394    5.23594786729    4.00000000000
      6.50803929747    4.44164030394    5.23594786729    4.00000000000
      6.50803929747   -4.44164030394    5.23594786729    4.00000000000
     -6.50803929747   -4.44164030394    5.23594786729    4.00000000000
     -3.25401964873    8.88328060789    0.70983678838   -2.00000000000
      3.25401964873    8.88328060789    0.70983678838   -2.00000000000
      3.25401964873   -8.88328060789    0.70983678838   -2.00000000000
     -3.25401964873   -8.88328060789    0.70983678838   -2.00000000000
     -0.00000000000    2.96109353596   -9.05222215782   -2.00000000000
     -0.00000000000   -2.96109353596   -9.05222215782   -2.00000000000
     -3.25401964873    8.88328060789   -1.27209143018    4.00000000000
      3.25401964873    8.88328060789   -1.27209143018    4.00000000000
      3.25401964873   -8.88328060789   -1.27209143018    4.00000000000
     -3.25401964873   -8.88328060789   -1.27209143018    4.00000000000
     -1.27209143018    4.44164030394    8.48996751602   -2.00000000000
      1.27209143018    4.44164030394    8.48996751602   -2.00000000000
      1.27209143018   -4.44164030394    8.48996751602   -2.00000000000
     -1.27209143018   -4.44164030394    8.48996751602   -2.00000000000
      0.00000000000    8.88328060789   -4.52611107891    4.00000000000
      0.00000000000   -8.88328060789   -4.52611107891    4.00000000000
     -3.25401964873    8.88328060789   -3.25401964873   -2.00000000000
      3.25401964873    8.88328060789   -3.25401964873   -2.00000000000
      3.25401964873   -8.88328060789   -3.25401964873   -2.00000000000
     -3.25401964873   -8.88328060789   -3.25401964873   -2.00000000000
     -3.25401964873    0.00000000000    9.76205894620   -2.00000000000
      3.25401964873    0.00000000000    9.76205894620   -2.00000000000
     -3.25401964873    5.92218707193   -7.78013072764    4.00000000000
      3.25401964873    5.92218707193   -7.78013072764    4.00000000000
      3.25401964873   -5.92218707193   -7.78013072764    4.00000000000
     -3.25401964873   -5.92218707193   -7.78013072764    4.00000000000
     -0.00000000000    0.00000000000   10.47189573458   -2.00000000000
      0.00000000000    7.40273383991   -7.78013072764    4.00000000000
      0.00000000000   -7.40273383991   -7.78013072764    4.00000000000
     -7.78013072764    4.44164030394    1.98192821856   -2.00000000000
      7.78013072764    4.44164030394    1.98192821856   -2.00000000000
      7.78013072764   -4.44164030394    1.98192821856   -2.00000000000
     -7.78013072764   -4.44164030394    1.98192821856   -2.00000000000
     -6.50803929747    0.00000000000   -6.50803929747   -2.00000000000
      6.50803929747    0.00000000000   -6.50803929747   -2.00000000000
     -5.23594786729    7.40273383991    1.98192821856   -2.00000000000
      5.23594786729    7.40273383991    1.98192821856   -2.00000000000
      5.23594786729   -7.40273383991    1.98192821856   -2.00000000000
     -5.23594786729   -7.40273383991    1.98192821856   -2.00000000000
     -6.50803929747    5.92218707193    3.96385643712   -2.00000000000
      6.50803929747    5.92218707193    3.96385643712   -2.00000000000
      6.50803929747   -5.92218707193    3.96385643712   -2.00000000000
     -6.50803929747   -5.92218707193    3.96385643712   -2.00000000000
     -8.48996751602    4.44164030394   -1.27209143018   -2.00000000000
      8.48996751602    4.44164030394   -1.27209143018   -2.00000000000
      8.48996751602   -4.44164030394   -1.27209143018   -2.00000000000
     -8.48996751602   -4.44164030394   -1.27209143018   -2.00000000000
     -6.50803929747    2.96109353596    6.50803929747   -2.00000000000
      6.50803929747    2.96109353596    6.50803929747   -2.00000000000
      6.50803929747   -2.96109353596    6.50803929747   -2.00000000000
     -6.50803929747   -2.96109353596    6.50803929747   -2.00000000000
     -6.50803929747    2.96109353596   -6.50803929747   -2.00000000000
      6.50803929747    2.96109353596   -6.50803929747   -2.00000000000
      6.50803929747   -2.96109353596   -6.50803929747   -2.00000000000
     -6.50803929747   -2.96109353596   -6.50803929747   -2.00000000000
     -0.00000000000    8.88328060789    3.96385643712   -2.00000000000
     -0.00000000000   -8.88328060789    3.96385643712   -2.00000000000
     -9.76205894620    0.00000000000    0.70983678838   -2.00000000000
      9.76205894620    0.00000000000    0.70983678838   -2.00000000000
     -9.76205894620    0.00000000000   -1.27209143018    4.00000000000
      9.76205894620    0.00000000000   -1.27209143018    4.00000000000
     -3.25401964873    5.92218707193    7.21787608585   -2.00000000000
      3.25401964873    5.92218707193    7.21787608585   -2.00000000000
      3.25401964873   -5.92218707193    7.21787608585   -2.00000000000
     -3.25401964873   -5.92218707193    7.21787608585   -2.00000000000
     -6.50803929747    5.92218707193   -4.52611107891    4.00000000000
      6.50803929747    5.92218707193   -4.52611107891    4.00000000000
      6.50803929747   -5.92218707193   -4.52611107891    4.00000000000
     -6.50803929747   -5.92218707193   -4.52611107891    4.00000000000
     -6.50803929747    7.40273383991   -1.27209143018    4.00000000000
      6.50803929747    7.40273383991   -1.27209143018    4.00000000000
      6.50803929747   -7.40273383991   -1.27209143018    4.00000000000
     -6.50803929747   -7.40273383991   -1.27209143018    4.00000000000
     -3.25401964873    8.88328060789    3.25401964873   -2.00000000000
      3.25401964873    8.88328060789    3.25401964873   -2.00000000000
      3.25401964873   -8.88328060789    3.25401964873   -2.00000000000
     -3.25401964873   -8.88328060789    3.25401964873   -2.00000000000
     -7.78013072764    4.44164030394   -4.52611107891   -2.00000000000
      7.78013072764    4.44164030394   -4.52611107891   -2.00000000000
      7.78013072764   -4.44164030394   -4.52611107891   -2.00000000000
     -7.78013072764   -4.44164030394   -4.52611107891   -2.00000000000
     -4.52611107891    4.44164030394   -7.78013072764   -2.00000000000
      4.52611107891    4.44164030394   -7.78013072764   -2.00000000000
      4.52611107891   -4.44164030394   -7.78013072764   -2.00000000000
     -4.52611107891   -4.44164030394   -7.78013072764   -2.00000000000
     -9.76205894620    1.48054676798    1.98192821856    4.00000000000
      9.76205894620    1.48054676798    1.98192821856    4.00000000000
      9.76205894620   -1.48054676798    1.98192821856    4.00000000000
     -9.76205894620   -1.48054676798    1.98192821856    4.00000000000
     -5.23594786729    1.48054676798    8.48996751602   -2.00000000000
      5.23594786729    1.48054676798    8.48996751602   -2.00000000000
      5.23594786729   -1.48054676798    8.48996751602   -2.00000000000
     -5.23594786729   -1.48054676798    8.48996751602   -2.00000000000
     -8.48996751602    1.48054676798    5.23594786729   -2.00000000000
      8.48996751602    1.48054676798    5.23594786729   -2.00000000000
      8.48996751602   -1.48054676798    5.23594786729   -2.00000000000
     -8.48996751602   -1.48054676798    5.23594786729   -2.00000000000
     -3.25401964873    4.44164030394    8.48996751602    4.00000000000
      3.25401964873    4.44164030394    8.48996751602    4.00000000000
      3.25401964873   -4.44164030394    8.48996751602    4.00000000000
     -3.25401964873   -4.44164030394    8.48996751602    4.00000000000
     -4.52611107891    7.40273383991    5.23594786729   -2.00000000000
      4.52611107891    7.40273383991    5.23594786729   -2.00000000000
      4.52611107891   -7.40273383991    5.23594786729   -2.00000000000
     -4.52611107891   -7.40273383991    5.23594786729   -2.00000000000
     -5.23594786729    7.40273383991   -4.52611107891   -2.00000000000
      5.23594786729    7.40273383991   -4.52611107891   -2.00000000000
      5.23594786729   -7.40273383991   -4.52611107891   -2.00000000000
     -5.23594786729   -7.40273383991   -4.52611107891   -2.00000000000
     -9.76205894620    2.96109353596    0.70983678838   -2.00000000000
      9.76205894620    2.96109353596    0.70983678838   -2.00000000000
      9.76205894620   -2.96109353596    0.70983678838   -2.00000000000
     -9.76205894620   -2.96109353596    0.70983678838   -2.00000000000
     -6.50803929747    1.48054676798   -7.78013072764    4.00000000000
      6.50803929747    1.48054676798   -7.78013072764    4.00000000000
      6.50803929747   -1.48054676798   -7.78013072764    4.00000000000
     -6.50803929747   -1.48054676798   -7.78013072764    4.00000000000
     -9.76205894620    2.96109353596   -1.27209143018    4.00000000000
      9.76205894620    2.96109353596   -1.27209143018    4.00000000000
      9.76205894620   -2.96109353596   -1.27209143018    4.00000000000
     -9.76205894620   -2.96109353596   -1.27209143018    4.00000000000
     -9.76205894620    0.00000000000    3.25401964873   -2.00000000000
      9.76205894620    0.00000000000    3.25401964873   -2.00000000000
     -9.76205894620    0.00000000000   -3.25401964873   -2.00000000000
      9.76205894620    0.00000000000   -3.25401964873   -2.00000000000
     -3.25401964873    0.00000000000   -9.76205894620   -2.00000000000
      3.25401964873    0.00000000000   -9.76205894620   -2.00000000000
      0.00000000000    5.92218707193    8.48996751602    4.00000000000
      0.00000000000   -5.92218707193    8.48996751602    4.00000000000
      0.00000000000   10.36382737587   -1.27209143018    4.00000000000
      0.00000000000  -10.36382737587   -1.27209143018    4.00000000000
     -1.27209143018   10.36382737587    1.98192821856   -2.00000000000
      1.27209143018   10.36382737587    1.98192821856   -2.00000000000
      1.27209143018  -10.36382737587    1.98192821856   -2.00000000000
     -1.27209143018  -10.36382737587    1.98192821856   -2.00000000000
     -1.98192821856   10.36382737587   -1.27209143018   -2.00000000000
      1.98192821856   10.36382737587   -1.27209143018   -2.00000000000
      1.98192821856  -10.36382737587   -1.27209143018   -2.00000000000
     -1.98192821856  -10.36382737587   -1.27209143018   -2.00000000000
     -6.50803929747    0.00000000000    8.48996751602    4.00000000000
      6.50803929747    0.00000000000    8.48996751602    4.00000000000
     -3.25401964873    2.96109353596    9.76205894620   -2.00000000000
      3.25401964873    2.96109353596    9.76205894620   -2.00000000000
      3.25401964873   -2.96109353596    9.76205894620   -2.00000000000
     -3.25401964873   -2.96109353596    9.76205894620   -2.00000000000
     -9.76205894620    2.96109353596    3.25401964873   -2.00000000000
      9.76205894620    2.96109353596    3.25401964873   -2.00000000000
      9.76205894620   -2.96109353596    3.25401964873   -2.00000000000
     -9.76205894620   -2.96109353596    3.25401964873   -2.00000000000
     -9.76205894620    2.96109353596   -3.25401964873   -2.00000000000
      9.76205894620    2.96109353596   -3.25401964873   -2.00000000000
      9.76205894620   -2.96109353596   -3.25401964873   -2.00000000000
     -9.76205894620   -2.96109353596   -3.25401964873   -2.00000000000
     -3.25401964873    2.96109353596   -9.76205894620   -2.00000000000
      3.25401964873    2.96109353596   -9.76205894620   -2.00000000000
      3.25401964873   -2.96109353596   -9.76205894620   -2.00000000000
     -3.25401964873   -2.96109353596   -9.76205894620   -2.00000000000
     -3.25401964873    8.88328060789    5.23594786729    4.00000000000
      3.25401964873    8.88328060789    5.23594786729    4.00000000000
      3.25401964873   -8.88328060789    5.23594786729    4.00000000000
     -3.25401964873   -8.88328060789    5.23594786729    4.00000000000
     -0.00000000000    5.92218707193   -9.05222215782   -2.00000000000
     -0.00000000000   -5.92218707193   -9.05222215782   -2.00000000000
     -9.76205894620    1.48054676798   -4.52611107891    4.00000000000
      9.76205894620    1.48054676798   -4.52611107891    4.00000000000
      9.76205894620   -1.48054676798   -4.52611107891    4.00000000000
     -9.76205894620   -1.48054676798   -4.52611107891    4.00000000000
     -0.00000000000    2.96109353596   10.47189573458   -2.00000000000
     -0.00000000000   -2.96109353596   10.47189573458   -2.00000000000
     -9.76205894620    4.44164030394    1.98192821856    4.00000000000
      9.76205894620    4.44164030394    1.98192821856    4.00000000000
      9.76205894620   -4.44164030394    1.98192821856    4.00000000000
     -9.76205894620   -4.44164030394    1.98192821856    4.00000000000
     -5.23594786729    4.44164030394    8.48996751602   -2.00000000000
      5.23594786729    4.44164030394    8.48996751602   -2.00000000000
      5.23594786729   -4.44164030394    8.48996751602   -2.00000000000
     -5.23594786729   -4.44164030394    8.48996751602   -2.00000000000
     -8.48996751602    4.44164030394    5.23594786729   -2.00000000000
      8.48996751602    4.44164030394    5.23594786729   -2.00000000000
      8.48996751602   -4.44164030394    5.23594786729   -2.00000000000
     -8.48996751602   -4.44164030394    5.23594786729   -2.00000000000
     -7.78013072764    7.40273383991    1.98192821856   -2.00000000000
      7.78013072764    7.40273383991    1.98192821856   -2.00000000000
      7.78013072764   -7.40273383991    1.98192821856   -2.00000000000
     -7.78013072764   -7.40273383991    1.98192821856   -2.00000000000
     -1.98192821856    7.40273383991   -7.78013072764   -2.00000000000
      1.98192821856    7.40273383991   -7.78013072764   -2.00000000000
      1.98192821856   -7.40273383991   -7.78013072764   -2.00000000000
     -1.98192821856   -7.40273383991   -7.78013072764   -2.00000000000
     -6.50803929747    5.92218707193    6.50803929747   -2.00000000000
      6.50803929747    5.92218707193    6.50803929747   -2.00000000000
      6.50803929747   -5.92218707193    6.50803929747   -2.00000000000
     -6.50803929747   -5.92218707193    6.50803929747   -2.00000000000
     -6.50803929747    5.92218707193   -6.50803929747   -2.00000000000
      6.50803929747    5.92218707193   -6.50803929747   -2.00000000000
      6.50803929747   -5.92218707193   -6.50803929747   -2.00000000000
     -6.50803929747   -5.92218707193   -6.50803929747   -2.00000000000
      0.00000000000    8.88328060789    6.50803929747   -2.00000000000
      0.00000000000   -8.88328060789    6.50803929747   -2.00000000000
     -6.50803929747    8.88328060789    0.00000000000   -2.00000000000
      6.50803929747    8.88328060789    0.00000000000   -2.00000000000
      6.50803929747   -8.88328060789    0.00000000000   -2.00000000000
     -6.50803929747   -8.88328060789    0.00000000000   -2.00000000000
      0.00000000000    8.88328060789   -6.50803929747   -2.00000000000
      0.00000000000   -8.88328060789   -6.50803929747   -2.00000000000
      0.00000000000    0.00000000000  -11.03415037637    4.00000000000
     -3.25401964873   10.36382737587    1.98192821856    4.00000000000
      3.25401964873   10.36382737587    1.98192821856    4.00000000000
      3.25401964873  -10.36382737587    1.98192821856    4.00000000000
     -3.25401964873  -10.36382737587    1.98192821856    4.00000000000
     -6.50803929747    4.44164030394   -7.78013072764    4.00000000000
      6.50803929747    4.44164030394   -7.78013072764    4.00000000000
      6.50803929747   -4.44164030394   -7.78013072764    4.00000000000
     -6.50803929747   -4.44164030394   -7.78013072764    4.00000000000
     -9.76205894620    0.00000000000    5.23594786729    4.00000000000
      9.76205894620    0.00000000000    5.23594786729    4.00000000000
     -3.25401964873    8.88328060789   -5.79820250908   -2.00000000000
      3.25401964873    8.88328060789   -5.79820250908   -2.00000000000
      3.25401964873   -8.88328060789   -5.79820250908   -2.00000000000
     -3.25401964873   -8.88328060789   -5.79820250908   -2.00000000000
     -6.50803929747    2.96109353596    8.48996751602    4.00000000000
      6.50803929747    2.96109353596    8.48996751602    4.00000000000
      6.50803929747   -2.96109353596    8.48996751602    4.00000000000
     -6.50803929747   -2.96109353596    8.48996751602    4.00000000000
     -6.50803929747    0.00000000000   -9.05222215782   -2.00000000000
      6.50803929747    0.00000000000   -9.05222215782   -2.00000000000
     -6.50803929747    7.40273383991    5.23594786729    4.00000000000
      6.50803929747    7.40273383991    5.23594786729    4.00000000000
      6.50803929747   -7.40273383991    5.23594786729    4.00000000000
     -6.50803929747   -7.40273383991    5.23594786729    4.00000000000
     -6.50803929747    8.88328060789    1.98192821856    4.00000000000
      6.50803929747    8.88328060789    1.98192821856    4.00000000000
      6.50803929747   -8.88328060789    1.98192821856    4.00000000000
     -6.50803929747   -8.88328060789    1.98192821856    4.00000000000
    -11.03415037637    1.48054676798   -1.27209143018   -2.00000000000
     11.03415037637    1.48054676798   -1.27209143018   -2.00000000000
     11.03415037637   -1.48054676798   -1.27209143018   -2.00000000000
    -11.03415037637   -1.48054676798   -1.27209143018   -2.00000000000
     -1.27209143018    1.48054676798  -11.03415037637   -2.00000000000
      1.27209143018    1.48054676798  -11.03415037637   -2.00000000000
      1.27209143018   -1.48054676798  -11.03415037637   -2.00000000000
     -1.27209143018   -1.48054676798  -11.03415037637   -2.00000000000
     -6.50803929747    8.88328060789   -2.54418286035   -2.00000000000
      6.50803929747    8.88328060789   -2.54418286035   -2.00000000000
      6.50803929747   -8.88328060789   -2.54418286035   -2.00000000000
     -6.50803929747   -8.88328060789   -2.54418286035   -2.00000000000
     -1.27209143018    7.40273383991    8.48996751602   -2.00000000000
      1.27209143018    7.40273383991    8.48996751602   -2.00000000000
      1.27209143018   -7.40273383991    8.48996751602   -2.00000000000
     -1.27209143018   -7.40273383991    8.48996751602   -2.00000000000
     -8.48996751602    7.40273383991   -1.27209143018   -2.00000000000
      8.48996751602    7.40273383991   -1.27209143018   -2.00000000000
      8.48996751602   -7.40273383991   -1.27209143018   -2.00000000000
     -8.48996751602   -7.40273383991   -1.27209143018   -2.00000000000
     -9.76205894620    0.00000000000   -5.79820250908   -2.00000000000
      9.76205894620    0.00000000000   -5.79820250908   -2.00000000000
     -4.52611107891   10.36382737587   -1.27209143018   -2.00000000000
      4.52611107891   10.36382737587   -1.27209143018   -2.00000000000
      4.52611107891  -10.36382737587   -1.27209143018   -2.00000000000
     -4.52611107891  -10.36382737587   -1.27209143018   -2.00000000000
     -1.27209143018   10.36382737587   -4.52611107891   -2.00000000000
      1.27209143018   10.36382737587   -4.52611107891   -2.00000000000
      1.27209143018  -10.36382737587   -4.52611107891   -2.00000000000
     -1.27209143018  -10.36382737587   -4.52611107891   -2.00000000000
      0.00000000000    2.96109353596  -11.03415037637    4.00000000000
      0.00000000000   -2.96109353596  -11.03415037637    4.00000000000
     -9.76205894620    5.92218707193    0.70983678838   -2.00000000000
      9.76205894620    5.92218707193    0.70983678838   -2.00000000000
      9.76205894620   -5.92218707193    0.70983678838   -2.00000000000
     -9.76205894620   -5.92218707193    0.70983678838   -2.00000000000
     -9.76205894620    2.96109353596    5.23594786729    4.00000000000
      9.76205894620    2.96109353596    5.23594786729    4.00000000000
      9.76205894620   -2.96109353596    5.23594786729    4.00000000000
     -9.76205894620   -2.96109353596    5.23594786729    4.00000000000
     -9.76205894620    5.92218707193   -1.27209143018    4.00000000000
      9.76205894620    5.92218707193   -1.27209143018    4.00000000000
      9.76205894620   -5.92218707193   -1.27209143018    4.00000000000
     -9.76205894620   -5.92218707193   -1.27209143018    4.00000000000
     -6.50803929747    2.96109353596   -9.05222215782   -2.00000000000
      6.50803929747    2.96109353596   -9.05222215782   -2.00000000000
      6.50803929747   -2.96109353596   -9.05222215782   -2.00000000000
     -6.50803929747   -2.96109353596   -9.05222215782   -2.00000000000
     -3.25401964873    1.48054676798  -11.03415037637    4.00000000000
      3.25401964873    1.48054676798  -11.03415037637    4.00000000000
      3.25401964873   -1.48054676798  -11.03415037637    4.00000000000
     -3.25401964873   -1.48054676798  -11.03415037637    4.00000000000
     -7.78013072764    1.48054676798    8.48996751602   -2.00000000000
      7.78013072764    1.48054676798    8.48996751602   -2.00000000000
      7.78013072764   -1.48054676798    8.48996751602   -2.00000000000
     -7.78013072764   -1.48054676798    8.48996751602   -2.00000000000
     -8.48996751602    1.48054676798   -7.78013072764   -2.00000000000
      8.48996751602    1.48054676798   -7.78013072764   -2.00000000000
      8.48996751602   -1.48054676798   -7.78013072764   -2.00000000000
     -8.48996751602   -1.48054676798   -7.78013072764   -2.00000000000
      0.00000000000   10.36382737587    5.23594786729    4.00000000000
      0.00000000000  -10.36382737587    5.23594786729    4.00000000000
     -9.76205894620    4.44164030394   -4.52611107891    4.00000000000
      9.76205894620    4.44164030394   -4.52611107891    4.00000000000
      9.76205894620   -4.44164030394   -4.52611107891    4.00000000000
     -9.76205894620   -4.44164030394   -4.52611107891    4.00000000000
     -7.78013072764    7.40273383991   -4.52611107891   -2.00000000000
      7.78013072764    7.40273383991   -4.52611107891   -2.00000000000
      7.78013072764   -7.40273383991   -4.52611107891   -2.00000000000
     -7.78013072764   -7.40273383991   -4.52611107891   -2.00000000000
     -4.52611107891    7.40273383991   -7.78013072764   -2.00000000000
      4.52611107891    7.40273383991   -7.78013072764   -2.00000000000
      4.52611107891   -7.40273383991   -7.78013072764   -2.00000000000
     -4.52611107891   -7.40273383991   -7.78013072764   -2.00000000000
     -6.50803929747    8.88328060789    3.96385643712   -2.00000000000
      6.50803929747    8.88328060789    3.96385643712   -2.00000000000
      6.50803929747   -8.88328060789    3.96385643712   -2.00000000000
     -6.50803929747   -8.88328060789    3.96385643712   -2.00000000000
     -3.25401964873    7.40273383991    8.48996751602    4.00000000000
      3.25401964873    7.40273383991    8.48996751602    4.00000000000
      3.25401964873   -7.40273383991    8.48996751602    4.00000000000
     -3.25401964873   -7.40273383991    8.48996751602    4.00000000000
     -9.76205894620    2.96109353596   -5.79820250908   -2.00000000000
      9.76205894620    2.96109353596   -5.79820250908   -2.00000000000
      9.76205894620   -2.96109353596   -5.79820250908   -2.00000000000
     -9.76205894620   -2.96109353596   -5.79820250908   -2.00000000000
     -3.25401964873   10.36382737587   -4.52611107891    4.00000000000
      3.25401964873   10.36382737587   -4.52611107891    4.00000000000
      3.25401964873  -10.36382737587   -4.52611107891    4.00000000000
     -3.25401964873  -10.36382737587   -4.52611107891    4.00000000000
     -1.98192821856   10.36382737587    5.23594786729   -2.00000000000
      1.98192821856   10.36382737587    5.23594786729   -2.00000000000
      1.98192821856  -10.36382737587    5.23594786729   -2.00000000000
     -1.98192821856  -10.36382737587    5.23594786729   -2.00000000000
     -5.23594786729   10.36382737587    1.98192821856   -2.00000000000
      5.23594786729   10.36382737587    1.98192821856   -2.00000000000
      5.23594786729  -10.36382737587    1.98192821856   -2.00000000000
     -5.23594786729  -10.36382737587    1.98192821856   -2.00000000000
      0.00000000000    1.48054676798   11.74398716476    4.00000000000
      0.00000000000   -1.48054676798   11.74398716476    4.00000000000
      0.00000000000   11.84437414385    0.00000000000   -2.00000000000
      0.00000000000  -11.84437414385    0.00000000000   -2.00000000000
     -3.25401964873    5.92218707193    9.76205894620   -2.00000000000
      3.25401964873    5.92218707193    9.76205894620   -2.00000000000
      3.25401964873   -5.92218707193    9.76205894620   -2.00000000000
     -3.25401964873   -5.92218707193    9.76205894620   -2.00000000000
     -9.76205894620    5.92218707193    3.25401964873   -2.00000000000
      9.76205894620    5.92218707193    3.25401964873   -2.00000000000
      9.76205894620   -5.92218707193    3.25401964873   -2.00000000000
     -9.76205894620   -5.92218707193    3.25401964873   -2.00000000000
     -9.76205894620    5.92218707193   -3.25401964873   -2.00000000000
      9.76205894620    5.92218707193   -3.25401964873   -2.00000000000
      9.76205894620   -5.92218707193   -3.25401964873   -2.00000000000
     -9.76205894620   -5.92218707193   -3.25401964873   -2.00000000000
     -3.25401964873    5.92218707193   -9.76205894620   -2.00000000000
      3.25401964873    5.92218707193   -9.76205894620   -2.00000000000
      3.25401964873   -5.92218707193   -9.76205894620   -2.00000000000
     -3.25401964873   -5.92218707193   -9.76205894620   -2.00000000000
     -3.25401964873    8.88328060789    7.21787608585   -2.00000000000
      3.25401964873    8.88328060789    7.21787608585   -2.00000000000
      3.25401964873   -8.88328060789    7.21787608585   -2.00000000000
     -3.25401964873   -8.88328060789    7.21787608585   -2.00000000000
     -6.50803929747    8.88328060789   -4.52611107891    4.00000000000
      6.50803929747    8.88328060789   -4.52611107891    4.00000000000
      6.50803929747   -8.88328060789   -4.52611107891    4.00000000000
     -6.50803929747   -8.88328060789   -4.52611107891    4.00000000000
    -11.03415037637    4.44164030394   -1.27209143018   -2.00000000000
     11.03415037637    4.44164030394   -1.27209143018   -2.00000000000
     11.03415037637   -4.44164030394   -1.27209143018   -2.00000000000
    -11.03415037637   -4.44164030394   -1.27209143018   -2.00000000000
     -1.27209143018    4.44164030394  -11.03415037637   -2.00000000000
      1.27209143018    4.44164030394  -11.03415037637   -2.00000000000
      1.27209143018   -4.44164030394  -11.03415037637   -2.00000000000
     -1.27209143018   -4.44164030394  -11.03415037637   -2.00000000000
     -1.98192821856    1.48054676798   11.74398716476   -2.00000000000
      1.98192821856    1.48054676798   11.74398716476   -2.00000000000
      1.98192821856   -1.48054676798   11.74398716476   -2.00000000000
     -1.98192821856   -1.48054676798   11.74398716476   -2.00000000000
    -11.74398716476    1.48054676798    1.98192821856   -2.00000000000
     11.74398716476    1.48054676798    1.98192821856   -2.00000000000
     11.74398716476   -1.48054676798    1.98192821856   -2.00000000000
    -11.74398716476   -1.48054676798    1.98192821856   -2.00000000000
      0.00000000000   11.84437414385    1.98192821856    4.00000000000
      0.00000000000  -11.84437414385    1.98192821856    4.00000000000
     -0.00000000000    5.92218707193   10.47189573458   -2.00000000000
     -0.00000000000   -5.92218707193   10.47189573458   -2.00000000000
     -0.00000000000   11.84437414385   -2.54418286035   -2.00000000000
     -0.00000000000  -11.84437414385   -2.54418286035   -2.00000000000
     -9.76205894620    0.00000000000    7.21787608585   -2.00000000000
      9.76205894620    0.00000000000    7.21787608585   -2.00000000000
     -3.25401964873    0.00000000000   11.74398716476    4.00000000000
      3.25401964873    0.00000000000   11.74398716476    4.00000000000
     -6.50803929747    5.92218707193    8.48996751602    4.00000000000
      6.50803929747    5.92218707193    8.48996751602    4.00000000000
      6.50803929747   -5.92218707193    8.48996751602    4.00000000000
     -6.50803929747   -5.92218707193    8.48996751602    4.00000000000
     -3.25401964873    8.88328060789   -7.78013072764    4.00000000000
      3.25401964873    8.88328060789   -7.78013072764    4.00000000000
      3.25401964873   -8.88328060789   -7.78013072764    4.00000000000
     -3.25401964873   -8.88328060789   -7.78013072764    4.00000000000
      0.00000000000    8.88328060789    8.48996751602    4.00000000000
      0.00000000000   -8.88328060789    8.48996751602    4.00000000000
    -11.03415037637    1.48054676798    5.23594786729   -2.00000000000
     11.03415037637    1.48054676798    5.23594786729   -2.00000000000
     11.03415037637   -1.48054676798    5.23594786729   -2.00000000000
    -11.03415037637   -1.48054676798    5.23594786729   -2.00000000000
     -5.23594786729    1.48054676798  -11.03415037637   -2.00000000000
      5.23594786729    1.48054676798  -11.03415037637   -2.00000000000
      5.23594786729   -1.48054676798  -11.03415037637   -2.00000000000
     -5.23594786729   -1.48054676798  -11.03415037637   -2.00000000000
     -3.25401964873   11.84437414385    0.70983678838   -2.00000000000
      3.25401964873   11.84437414385    0.70983678838   -2.00000000000
      3.25401964873  -11.84437414385    0.70983678838   -2.00000000000
     -3.25401964873  -11.84437414385    0.70983678838   -2.00000000000
     -6.50803929747   10.36382737587   -1.27209143018    4.00000000000
      6.50803929747   10.36382737587   -1.27209143018    4.00000000000
      6.50803929747  -10.36382737587   -1.27209143018    4.00000000000
     -6.50803929747  -10.36382737587   -1.27209143018    4.00000000000
     -6.50803929747    0.00000000000   10.47189573458   -2.00000000000
      6.50803929747    0.00000000000   10.47189573458   -2.00000000000
     -3.25401964873    4.44164030394  -11.03415037637    4.00000000000
      3.25401964873    4.44164030394  -11.03415037637    4.00000000000
      3.25401964873   -4.44164030394  -11.03415037637    4.00000000000
     -3.25401964873   -4.44164030394  -11.03415037637    4.00000000000
     -7.78013072764    4.44164030394    8.48996751602   -2.00000000000
      7.78013072764    4.44164030394    8.48996751602   -2.00000000000
      7.78013072764   -4.44164030394    8.48996751602   -2.00000000000
     -7.78013072764   -4.44164030394    8.48996751602   -2.00000000000
     -8.48996751602    4.44164030394   -7.78013072764   -2.00000000000
      8.48996751602    4.44164030394   -7.78013072764   -2.00000000000
      8.48996751602   -4.44164030394   -7.78013072764   -2.00000000000
     -8.48996751602   -4.44164030394   -7.78013072764   -2.00000000000
     -3.25401964873   11.84437414385   -1.27209143018    4.00000000000
      3.25401964873   11.84437414385   -1.27209143018    4.00000000000
      3.25401964873  -11.84437414385   -1.27209143018    4.00000000000
     -3.25401964873  -11.84437414385   -1.27209143018    4.00000000000
     -9.76205894620    7.40273383991    1.98192821856    4.00000000000
      9.76205894620    7.40273383991    1.98192821856    4.00000000000
      9.76205894620   -7.40273383991    1.98192821856    4.00000000000
     -9.76205894620   -7.40273383991    1.98192821856    4.00000000000
     -5.23594786729    7.40273383991    8.48996751602   -2.00000000000
      5.23594786729    7.40273383991    8.48996751602   -2.00000000000
      5.23594786729   -7.40273383991    8.48996751602   -2.00000000000
     -5.23594786729   -7.40273383991    8.48996751602   -2.00000000000
     -8.48996751602    7.40273383991    5.23594786729   -2.00000000000
      8.48996751602    7.40273383991    5.23594786729   -2.00000000000
      8.48996751602   -7.40273383991    5.23594786729   -2.00000000000
     -8.48996751602   -7.40273383991    5.23594786729   -2.00000000000
     -4.52611107891   10.36382737587    5.23594786729   -2.00000000000
      4.52611107891   10.36382737587    5.23594786729   -2.00000000000
      4.52611107891  -10.36382737587    5.23594786729   -2.00000000000
     -4.52611107891  -10.36382737587    5.23594786729   -2.00000000000
     -5.23594786729   10.36382737587   -4.52611107891   -2.00000000000
      5.23594786729   10.36382737587   -4.52611107891   -2.00000000000
      5.23594786729  -10.36382737587   -4.52611107891   -2.00000000000
     -5.23594786729  -10.36382737587   -4.52611107891   -2.00000000000
     -9.76205894620    0.00000000000   -7.78013072764    4.00000000000
      9.76205894620    0.00000000000   -7.78013072764    4.00000000000
     -0.00000000000   11.84437414385    3.96385643712   -2.00000000000
     -0.00000000000  -11.84437414385    3.96385643712   -2.00000000000
     -9.76205894620    2.96109353596    7.21787608585   -2.00000000000
      9.76205894620    2.96109353596    7.21787608585   -2.00000000000
      9.76205894620   -2.96109353596    7.21787608585   -2.00000000000
     -9.76205894620   -2.96109353596    7.21787608585   -2.00000000000
      0.00000000000    5.92218707193  -11.03415037637    4.00000000000
      0.00000000000   -5.92218707193  -11.03415037637    4.00000000000
     -3.25401964873    2.96109353596   11.74398716476    4.00000000000
      3.25401964873    2.96109353596   11.74398716476    4.00000000000
      3.25401964873   -2.96109353596   11.74398716476    4.00000000000
     -3.25401964873   -2.96109353596   11.74398716476    4.00000000000
      0.00000000000    4.44164030394   11.74398716476    4.00000000000
      0.00000000000   -4.44164030394   11.74398716476    4.00000000000
     -6.50803929747    7.40273383991   -7.78013072764    4.00000000000
      6.50803929747    7.40273383991   -7.78013072764    4.00000000000
      6.50803929747   -7.40273383991   -7.78013072764    4.00000000000
     -6.50803929747   -7.40273383991   -7.78013072764    4.00000000000
     -9.76205894620    5.92218707193    5.23594786729    4.00000000000
      9.76205894620    5.92218707193    5.23594786729    4.00000000000
      9.76205894620   -5.92218707193    5.23594786729    4.00000000000
     -9.76205894620   -5.92218707193    5.23594786729    4.00000000000
     -6.50803929747    5.92218707193   -9.05222215782   -2.00000000000
      6.50803929747    5.92218707193   -9.05222215782   -2.00000000000
      6.50803929747   -5.92218707193   -9.05222215782   -2.00000000000
     -6.50803929747   -5.92218707193   -9.05222215782   -2.00000000000
     -4.52611107891    1.48054676798   11.74398716476   -2.00000000000
      4.52611107891    1.48054676798   11.74398716476   -2.00000000000
      4.52611107891   -1.48054676798   11.74398716476   -2.00000000000
     -4.52611107891   -1.48054676798   11.74398716476   -2.00000000000
    -11.74398716476    1.48054676798   -4.52611107891   -2.00000000000
     11.74398716476    1.48054676798   -4.52611107891   -2.00000000000
     11.74398716476   -1.48054676798   -4.52611107891   -2.00000000000
    -11.74398716476   -1.48054676798   -4.52611107891   -2.00000000000
      0.00000000000   11.84437414385   -4.52611107891    4.00000000000
      0.00000000000  -11.84437414385   -4.52611107891    4.00000000000
     -6.50803929747    2.96109353596   10.47189573458   -2.00000000000
      6.50803929747    2.96109353596   10.47189573458   -2.00000000000
      6.50803929747   -2.96109353596   10.47189573458   -2.00000000000
     -6.50803929747   -2.96109353596   10.47189573458   -2.00000000000
     -0.00000000000    8.88328060789   -9.05222215782   -2.00000000000
     -0.00000000000   -8.88328060789   -9.05222215782   -2.00000000000
     -3.25401964873   11.84437414385    3.25401964873   -2.00000000000
      3.25401964873   11.84437414385    3.25401964873   -2.00000000000
      3.25401964873  -11.84437414385    3.25401964873   -2.00000000000
     -3.25401964873  -11.84437414385    3.25401964873   -2.00000000000
     -3.25401964873   11.84437414385   -3.25401964873   -2.00000000000
      3.25401964873   11.84437414385   -3.25401964873   -2.00000000000
      3.25401964873  -11.84437414385   -3.25401964873   -2.00000000000
     -3.25401964873  -11.84437414385   -3.25401964873   -2.00000000000
     -1.98192821856    4.44164030394   11.74398716476   -2.00000000000
      1.98192821856    4.44164030394   11.74398716476   -2.00000000000
      1.98192821856   -4.44164030394   11.74398716476   -2.00000000000
     -1.98192821856   -4.44164030394   11.74398716476   -2.00000000000
    -11.74398716476    4.44164030394    1.98192821856   -2.00000000000
     11.74398716476    4.44164030394    1.98192821856   -2.00000000000
     11.74398716476   -4.44164030394    1.98192821856   -2.00000000000
    -11.74398716476   -4.44164030394    1.98192821856   -2.00000000000
     -3.25401964873    0.00000000000  -12.30624180655   -2.00000000000
      3.25401964873    0.00000000000  -12.30624180655   -2.00000000000
     -6.50803929747    8.88328060789    6.50803929747   -2.00000000000
      6.50803929747    8.88328060789    6.50803929747   -2.00000000000
      6.50803929747   -8.88328060789    6.50803929747   -2.00000000000
     -6.50803929747   -8.88328060789    6.50803929747   -2.00000000000
     -6.50803929747    8.88328060789   -6.50803929747   -2.00000000000
      6.50803929747    8.88328060789   -6.50803929747   -2.00000000000
      6.50803929747   -8.88328060789   -6.50803929747   -2.00000000000
     -6.50803929747   -8.88328060789   -6.50803929747   -2.00000000000
     -9.76205894620    5.92218707193   -5.79820250908   -2.00000000000
      9.76205894620    5.92218707193   -5.79820250908   -2.00000000000
      9.76205894620   -5.92218707193   -5.79820250908   -2.00000000000
     -9.76205894620   -5.92218707193   -5.79820250908   -2.00000000000
     -6.50803929747    0.00000000000  -11.03415037637    4.00000000000
      6.50803929747    0.00000000000  -11.03415037637    4.00000000000
     -9.76205894620    2.96109353596   -7.78013072764    4.00000000000
      9.76205894620    2.96109353596   -7.78013072764    4.00000000000
      9.76205894620   -2.96109353596   -7.78013072764    4.00000000000
     -9.76205894620   -2.96109353596   -7.78013072764    4.00000000000
      0.00000000000   10.36382737587   -7.78013072764    4.00000000000
      0.00000000000  -10.36382737587   -7.78013072764    4.00000000000
    -11.03415037637    4.44164030394    5.23594786729   -2.00000000000
     11.03415037637    4.44164030394    5.23594786729   -2.00000000000
     11.03415037637   -4.44164030394    5.23594786729   -2.00000000000
    -11.03415037637   -4.44164030394    5.23594786729   -2.00000000000
     -5.23594786729    4.44164030394  -11.03415037637   -2.00000000000
      5.23594786729    4.44164030394  -11.03415037637   -2.00000000000
      5.23594786729   -4.44164030394  -11.03415037637   -2.00000000000
     -5.23594786729   -4.44164030394  -11.03415037637   -2.00000000000
      0.00000000000    0.00000000000   13.01607859493   -2.00000000000
    -13.01607859493    0.00000000000    0.00000000000   -2.00000000000
     13.01607859493    0.00000000000    0.00000000000   -2.00000000000
      0.00000000000    0.00000000000  -13.01607859493   -2.00000000000
     -9.76205894620    1.48054676798    8.48996751602    4.00000000000
      9.76205894620    1.48054676798    8.48996751602    4.00000000000
      9.76205894620   -1.48054676798    8.48996751602    4.00000000000
     -9.76205894620   -1.48054676798    8.48996751602    4.00000000000
     -9.76205894620    7.40273383991   -4.52611107891    4.00000000000
      9.76205894620    7.40273383991   -4.52611107891    4.00000000000
      9.76205894620   -7.40273383991   -4.52611107891    4.00000000000
     -9.76205894620   -7.40273383991   -4.52611107891    4.00000000000
     -3.25401964873    2.96109353596  -12.30624180655   -2.00000000000
      3.25401964873    2.96109353596  -12.30624180655   -2.00000000000
      3.25401964873   -2.96109353596  -12.30624180655   -2.00000000000
     -3.25401964873   -2.96109353596  -12.30624180655   -2.00000000000
     -7.78013072764   10.36382737587    1.98192821856   -2.00000000000
      7.78013072764   10.36382737587    1.98192821856   -2.00000000000
      7.78013072764  -10.36382737587    1.98192821856   -2.00000000000
     -7.78013072764  -10.36382737587    1.98192821856   -2.00000000000
     -1.98192821856   10.36382737587   -7.78013072764   -2.00000000000
      1.98192821856   10.36382737587   -7.78013072764   -2.00000000000
      1.98192821856  -10.36382737587   -7.78013072764   -2.00000000000
     -1.98192821856  -10.36382737587   -7.78013072764   -2.00000000000
     -6.50803929747    2.96109353596  -11.03415037637    4.00000000000
      6.50803929747    2.96109353596  -11.03415037637    4.00000000000
      6.50803929747   -2.96109353596  -11.03415037637    4.00000000000
     -6.50803929747   -2.96109353596  -11.03415037637    4.00000000000
    -13.01607859493    1.48054676798   -1.27209143018    4.00000000000
     13.01607859493    1.48054676798   -1.27209143018    4.00000000000
     13.01607859493   -1.48054676798   -1.27209143018    4.00000000000
    -13.01607859493   -1.48054676798   -1.27209143018    4.00000000000
    -13.01607859493    0.00000000000    1.98192821856    4.00000000000
     13.01607859493    0.00000000000    1.98192821856    4.00000000000
     -9.76205894620    8.88328060789    0.70983678838   -2.00000000000
      9.76205894620    8.88328060789    0.70983678838   -2.00000000000
      9.76205894620   -8.88328060789    0.70983678838   -2.00000000000
     -9.76205894620   -8.88328060789    0.70983678838   -2.00000000000
     -9.76205894620    8.88328060789   -1.27209143018    4.00000000000
      9.76205894620    8.88328060789   -1.27209143018    4.00000000000
      9.76205894620   -8.88328060789   -1.27209143018    4.00000000000
     -9.76205894620   -8.88328060789   -1.27209143018    4.00000000000
    -13.01607859493    0.00000000000   -2.54418286035   -2.00000000000
     13.01607859493    0.00000000000   -2.54418286035   -2.00000000000
     -6.50803929747   10.36382737587    5.23594786729    4.00000000000
      6.50803929747   10.36382737587    5.23594786729    4.00000000000
      6.50803929747  -10.36382737587    5.23594786729    4.00000000000
     -6.50803929747  -10.36382737587    5.23594786729    4.00000000000
     -4.52611107891    4.44164030394   11.74398716476   -2.00000000000
      4.52611107891    4.44164030394   11.74398716476   -2.00000000000
      4.52611107891   -4.44164030394   11.74398716476   -2.00000000000
     -4.52611107891   -4.44164030394   11.74398716476   -2.00000000000
    -11.74398716476    4.44164030394   -4.52611107891   -2.00000000000
     11.74398716476    4.44164030394   -4.52611107891   -2.00000000000
     11.74398716476   -4.44164030394   -4.52611107891   -2.00000000000
    -11.74398716476   -4.44164030394   -4.52611107891   -2.00000000000
    -11.03415037637    7.40273383991   -1.27209143018   -2.00000000000
     11.03415037637    7.40273383991   -1.27209143018   -2.00000000000
     11.03415037637   -7.40273383991   -1.27209143018   -2.00000000000
    -11.03415037637   -7.40273383991   -1.27209143018   -2.00000000000
[...]
 Iteration 11        0.000774777188       -1.445213540262
 Iteration 12        0.000378735852       -1.445200381599
 Iteration 13        0.000205330839       -1.445200563430
 Iteration 14        0.000101846928       -1.445203896622
 Iteration 15        0.000048961786       -1.445204433014
 
 CCSD iteration has converged in 15 steps.
     3835.24 MB memory was utilized by CCSD
 
 T1 diagnostic:      2.204E-02            D1 diagnostic:      1.206E-01
 
 CCSD correlation energy [au]:          -0.074350742066
 
 CPU time [min]: 43198.298                   Wall time [min]:   712.981
 
 Calculation of (T) correction...
 
 Laplace threshold, nquadmin:  1.00E-03   4
 Number of quadrature points:    4
 
     2559.98 MB memory is utilized for (T)

 0%       25%       50%       75%       100%
 |---------|---------|---------|---------| 
 
 (T) correction [au]:                   -0.003244500255
 CCSD(T) correlation energy [au]:       -0.077595242321
 
 CPU time [min]: 43285.439                   Wall time [min]:   714.240
 
 MO:    67
 Number of atoms in domain:      18
 Number of atomic orbitals:    1581
 Number of atoms for local DF:   18
 Number of fitting functions:  5913 (100.00%)
 Warning: drop high-lying PAOs                     4
 Number of occupied orbitals:    64
 Number of virtual  orbitals:  1478
 Number of Cholesky vectors:      8
 MP2 energy in ED [au]:          -0.075444704234
 Number of occupied LNOs:        35  (54.69%)
 Number of virtual  LNOs:       168  (11.37%)
 tol*100>norm                    85  8.295244553014442E-004
 tol*100>norm                   100  3.101693632798544E-003
 tol*100>norm                   101  1.694545667808189E-003
 tol*100>norm                   102  3.346644767297034E-003
 tol*100>norm                   212  7.577587183657851E-004
 tol*100>norm                   227  1.843775251714444E-003
 tol*100>norm                   228  1.623096425403742E-003
 tol*100>norm                   229  1.896393551859901E-003
 tol*100>norm                   339  7.980479893262284E-004
 tol*100>norm                   354  1.804968616988697E-003
 tol*100>norm                   355  1.814621048454925E-003
 tol*100>norm                   356  2.022042977586957E-003
 tol*100>norm                   465  8.788476897973596E-003
 tol*100>norm                   545  7.507064132424267E-003
 tol*100>norm                   625  7.507064008034532E-003
 tol*100>norm                   705  7.498976419391318E-003
 tol*100>norm                   785  7.498960978040505E-003
 tol*100>norm                   865  7.822963607589717E-003
 tol*100>norm                   945  7.822964315704894E-003
 tol*100>norm                  1025  7.799443536984668E-003
 tol*100>norm                  1105  7.799455613039102E-003
 tol*100>norm                  1265  7.708244443593720E-003
 tol*100>norm                  1425  7.375705657008121E-003
 tol*100>norm                  1505  7.845013327874670E-003
 avg/min projected vLNO norm    1.0000E+00    1.0000E+00
 Number of Cholesky vectors:      7
 MP2 energy in LIS [au]:         -0.075073823173
 Correction for frozen LNO [au]: -0.000370881061     (0.492%)
 Number of NAFs:                625  (10.57%)
 CPU time [min]: 43614.980                   Wall time [min]:   720.156
 

 Direct DF-CCSD(T) calculation
 
 Convergence criterion:  1.0E-05
 
 Number of occupied/virtual/auxiliary orbitals:    35   168   625
   1267.08 MB is the minimal memory requirement for (T)
    830.06 MB is the minimal memory requirement for CCSD
 
 MP2 correlation energy [au]:        -1.427019489030
 
 LMP2 domain correlation energy contribution [au]:       -0.075073495647
 
 CPU time [min]: 43615.522                   Wall time [min]:   720.168
 
 
 Starting CCSD iterations...
 
                     Residual norm       Correlation Energy
 Iteration  1        0.345375274911       -1.388899332306
 Iteration  2        0.174515098261       -1.434164729195
 Iteration  3        0.050564086447       -1.444481745343
 Iteration  4        0.018723960244       -1.445567378153
 Iteration  5        0.007726225997       -1.444939435806
 Iteration  6        0.005019493266       -1.444908243677
 Iteration  7        0.003559653760       -1.445041258570
 Iteration  8        0.002957515084       -1.445074754225
 Iteration  9        0.002233682622       -1.445111557734
 Iteration 10        0.001418477957       -1.445190176359
 Iteration 11        0.000774628918       -1.445204429767
 Iteration 12        0.000378688496       -1.445191276405
 Iteration 13        0.000205310601       -1.445191460751
 Iteration 14        0.000101836532       -1.445194793346
 Iteration 15        0.000048963545       -1.445195329458
 
 CCSD iteration has converged in 15 steps.
     3835.24 MB memory was utilized by CCSD
 
 T1 diagnostic:      2.204E-02            D1 diagnostic:      1.206E-01
 
 CCSD correlation energy [au]:          -0.074350742346
 
 CPU time [min]: 43666.284                   Wall time [min]:   720.913
 
 Calculation of (T) correction...
 
 Laplace threshold, nquadmin:  1.00E-03   4
 Number of quadrature points:    4
 
     2559.98 MB memory is utilized for (T)

 0%       25%       50%       75%       100%
 |---------|---------|---------|---------| 
 
 (T) correction [au]:                   -0.003244504091
 CCSD(T) correlation energy [au]:       -0.077595246437
 
 CPU time [min]: 43750.674                   Wall time [min]:   722.140
 
 MO:    68
 Number of atoms in domain:      18
 Number of atomic orbitals:    1581
 Number of atoms for local DF:   18
 Number of fitting functions:  5913 (100.00%)
 Warning: drop high-lying PAOs                     4
 Number of occupied orbitals:    65
 Number of virtual  orbitals:  1478
 Number of Cholesky vectors:      8
 MP2 energy in ED [au]:          -0.076486356023
 Number of occupied LNOs:        36  (55.38%)
 Number of virtual  LNOs:       169  (11.43%)
 tol*100>norm                    85  7.576870093997340E-004
 tol*100>norm                   100  1.843638356560517E-003
 tol*100>norm                   101  1.622222055003008E-003
 tol*100>norm                   102  1.896355295440483E-003
 tol*100>norm                   212  7.577161734275865E-004
 tol*100>norm                   227  1.843745457752207E-003
 tol*100>norm                   228  1.622315235663683E-003
 tol*100>norm                   229  1.896360621051928E-003
 tol*100>norm                   339  9.230480312363686E-004
 tol*100>norm                   354  2.242948175521065E-003
 tol*100>norm                   355  2.269136343350424E-003
 tol*100>norm                   356  3.549054095839605E-003
 tol*100>norm                   465  8.772061170443412E-003
 tol*100>norm                   545  7.505750459549737E-003
 tol*100>norm                   705  7.528158140297104E-003
 tol*100>norm                   785  7.519519428946127E-003
 tol*100>norm                   865  7.799467053402911E-003
 tol*100>norm                   945  7.799699244077529E-003
 tol*100>norm                  1025  7.799611624209668E-003
 tol*100>norm                  1105  7.799492046952045E-003
 tol*100>norm                  1185  7.708157344321655E-003
 tol*100>norm                  1265  7.707891288970467E-003
 tol*100>norm                  1345  7.375736925613677E-003
 tol*100>norm                  1425  7.375818218773464E-003
 avg/min projected vLNO norm    1.0000E+00    1.0000E+00
 Number of Cholesky vectors:      7
 MP2 energy in LIS [au]:         -0.076105995201
 Correction for frozen LNO [au]: -0.000380360822     (0.497%)
 Number of NAFs:                622  (10.52%)
 CPU time [min]: 44082.357                   Wall time [min]:   728.110
 

 Direct DF-CCSD(T) calculation
 
 Convergence criterion:  1.0E-05
 
 Number of occupied/virtual/auxiliary orbitals:    36   169   622
   1304.26 MB is the minimal memory requirement for (T)
    859.26 MB is the minimal memory requirement for CCSD
 
 MP2 correlation energy [au]:        -1.366118221671
 
 LMP2 domain correlation energy contribution [au]:       -0.076106142581
 
 CPU time [min]: 44082.914                   Wall time [min]:   728.122
 
 
 Starting CCSD iterations...
 
                     Residual norm       Correlation Energy
 Iteration  1        0.348346735105       -1.331511138071
 Iteration  2        0.188587400675       -1.376343680731
 Iteration  3        0.052853789357       -1.386706421223
 Iteration  4        0.018583469294       -1.387735566346
 Iteration  5        0.007019997471       -1.387175669764
 Iteration  6        0.003909044769       -1.387045818412
 Iteration  7        0.002191939816       -1.387134272788
 Iteration  8        0.001514204521       -1.387123630602
 Iteration  9        0.001094533782       -1.387117424703
 Iteration 10        0.000708792321       -1.387140549500
 Iteration 11        0.000404470489       -1.387139963410
 Iteration 12        0.000197627842       -1.387135024041
 Iteration 13        0.000113323916       -1.387136518642
 Iteration 14        0.000074586805       -1.387137670641
 
 CCSD iteration has converged in 14 steps.
     3936.37 MB memory was utilized by CCSD
 
 T1 diagnostic:      2.019E-02            D1 diagnostic:      9.837E-02
 
 CCSD correlation energy [au]:          -0.075157335700
 
 CPU time [min]: 44136.657                   Wall time [min]:   728.924
 
 Calculation of (T) correction...
 
 Laplace threshold, nquadmin:  1.00E-03   4
 Number of quadrature points:    4
 
     2671.87 MB memory is utilized for (T)

 0%       25%       50%       75%       100%
 |---------|---------|---------|---------| 
 
 (T) correction [au]:                   -0.003303412317
 CCSD(T) correlation energy [au]:       -0.078460748017
 
 CPU time [min]: 44209.799                   Wall time [min]:   729.999
 
 MO:    69
 Number of atoms in domain:      18
 Number of atomic orbitals:    1581
 Number of atoms for local DF:   18
 Number of fitting functions:  5913 (100.00%)
 Warning: drop high-lying PAOs                     4
 Number of occupied orbitals:    66
 Number of virtual  orbitals:  1478
 Number of Cholesky vectors:      8
 MP2 energy in ED [au]:          -0.083325342950
 Number of occupied LNOs:        38  (57.58%)
 Number of virtual  LNOs:       186  (12.58%)
 tol*100>norm                    85  8.292576779569572E-004
 tol*100>norm                   100  2.976609200012052E-003
 tol*100>norm                   101  1.685550487678524E-003
 tol*100>norm                   102  2.619028970252686E-003
 tol*100>norm                   212  7.577388774432831E-004
 tol*100>norm                   227  1.843726238344245E-003
 tol*100>norm                   228  1.622749335944090E-003
 tol*100>norm                   229  1.896381355099633E-003
 tol*100>norm                   339  7.979886022002379E-004
 tol*100>norm                   354  1.804567008265767E-003
 tol*100>norm                   355  1.814371503139383E-003
 tol*100>norm                   356  2.022041607944647E-003
 tol*100>norm                   465  8.781905112216902E-003
 tol*100>norm                   545  7.498819813940669E-003
 tol*100>norm                   625  7.498817968962922E-003
 tol*100>norm                   705  7.498910630478254E-003
 tol*100>norm                   785  7.498895325491655E-003
 tol*100>norm                   865  7.814107218086938E-003
 tol*100>norm                   945  7.814108110302892E-003
 tol*100>norm                  1025  7.799439697789623E-003
 tol*100>norm                  1105  7.799451775906796E-003
 tol*100>norm                  1185  7.728565482228751E-003
 tol*100>norm                  1265  7.708244182964168E-003
 tol*100>norm                  1425  7.375674298271122E-003
 tol*100>norm                  1505  7.844980391939316E-003
 avg/min projected vLNO norm    1.0000E+00    1.0000E+00
 Number of Cholesky vectors:      7
 MP2 energy in LIS [au]:         -0.082894809445
 Correction for frozen LNO [au]: -0.000430533504     (0.517%)
 Number of NAFs:                687  (11.62%)
 CPU time [min]: 44558.850                   Wall time [min]:   736.368
 

 Direct DF-CCSD(T) calculation
 
 Convergence criterion:  1.0E-05
 
 Number of occupied/virtual/auxiliary orbitals:    38   186   687
   1693.71 MB is the minimal memory requirement for (T)
   1094.41 MB is the minimal memory requirement for CCSD
 
 MP2 correlation energy [au]:        -1.413037423425
 
 LMP2 domain correlation energy contribution [au]:       -0.082894651298
 
 CPU time [min]: 44559.495                   Wall time [min]:   736.383
 
 
 Starting CCSD iterations...
 
                     Residual norm       Correlation Energy
 Iteration  1        0.367520262759       -1.376113523888
 Iteration  2        0.230491381374       -1.424707841200
 Iteration  3        0.059548561898       -1.436319898127
 Iteration  4        0.023158693666       -1.437366275199
 Iteration  5        0.008972991562       -1.436697000694
 Iteration  6        0.004876045922       -1.436437720802
 Iteration  7        0.002258279021       -1.436546233980
 Iteration  8        0.001287719882       -1.436541170149
 Iteration  9        0.000739715254       -1.436525000723
 Iteration 10        0.000518124155       -1.436533899333
 Iteration 11        0.000356873456       -1.436539692423
 Iteration 12        0.000237196143       -1.436531266036
 Iteration 13        0.000135621316       -1.436531917273
 Iteration 14        0.000084062435       -1.436534026172
 
 CCSD iteration has converged in 14 steps.
     5621.31 MB memory was utilized by CCSD
 
 T1 diagnostic:      2.106E-02            D1 diagnostic:      1.080E-01
 
 CCSD correlation energy [au]:          -0.080757056304
 
 CPU time [min]: 44633.408                   Wall time [min]:   737.483
 
 Calculation of (T) correction...
 
 Laplace threshold, nquadmin:  1.00E-03   4
 Number of quadrature points:    4
 
     3620.85 MB memory is utilized for (T)

 0%       25%       50%       75%       100%
 |---------|---------|---------|---------| 
 
 (T) correction [au]:                   -0.004255862948
 CCSD(T) correlation energy [au]:       -0.085012919252
 
 CPU time [min]: 44780.566                   Wall time [min]:   739.599
 
 **********************************************************************
 Dimensions of the extended domains:    Minimum / Average / Maximum
 
 Number of atoms in domain:                  18      18.0        18
 Number of atomic orbitals:                1581    1581.0      1581
 Number of fitting functions:              5913    5913.0      5913
 Number of occupied localized MOs:           33      61.3        69
 Number of PAOs:                           1478    1478.0      1478
 Number of occupied LNOs:                    23      36.7        69
 Number of virtual  LNOs:                   138     173.6       455
 Number of NAFs:                            488     654.3      1731
 
 **********************************************************************
 Distant (and weak) pair contributions, corrections
 
 Sum of pair energies [au]:                    -0.000485854739    (0.009%)
 Sum of energy corrections [au]:               -0.027807885734    (0.517%)
 Pair energies + LNO corrections [au]:         -0.028293740472
 Sum of LMP2 contributions [au]:               -5.383126295116
 
 **********************************************************************
  Time of manipulations in the EDs:      max CPU/Wall [s]  all CPU/Wall [min]
 
 PD construction & multipole pair E   33872.39   456.19   564.54     7.60
 Construct MO basis of the ED            78.69     1.11    81.78     1.08
 (mu,nu|P) evaluation & trf 2 (ai|P)   6767.89   110.49  7212.10   111.61
 Evaluate MP2 energy of the ED          582.18     7.69   568.89     7.52
 Transformations to the LNO basis       400.24     5.52   285.77     3.79
 Build W_PQ (Jai or Jpi part)            43.82     0.73    25.77     0.47
 Evaluate MP2 energy of the LIS          55.18     0.73     9.56     0.13
 (mu,nu|P) evaluation & trf 2 J(abQ)  31271.21   660.83 14502.90   287.67
 Total of the above for all EDs       39199.21   787.11 22686.77   412.28
 
 **********************************************************************
 Maximum memory requirement [MB]:       
 
 PD construction & multipole pair E        267.7
 AO integral evaluation in the EDs       26508.6
 (mu,nu|P) evaluation & trf 2 (aI|P)     46501.2
 Evaluate MP2 energy in the EDs          10968.4
 Transformation to the LNO basis          5515.2
 (mu,nu|P) to Jab transformation         30294.5
 Evaluate MP2 energy in the LIS           5943.0
 Minimum requirement for LIS CCSD        15135.6
 Actually allocated  for LIS CCSD       179136.1
 Minimum requirement for LIS (T)         24590.0
 Actually allocated  for LIS (T)         77090.2
 
 ======================================================================
 ======================================================================
 
 
 
 ======================================================================
 ======================================================================
 
 Final local CC results:
 
 Minimum number of correlated electrons:        46       ( 33.3%)
 Maximum number of correlated electrons:       138       (100.0%)
 Average number of correlated electrons:        73.3     ( 53.1%)
 Minimum number of correlated orbitals:        161       ( 10.4%)
 Maximum number of correlated orbitals:        524       ( 33.8%)
 Average number of correlated orbitals:        210.3     ( 13.5%)
 
 CPU time for integral calculations [min]:                165.614
 Wall time for integral calculations [min]:               102.781
 
 CPU time for SCF calculation [min]:                     2783.345
 Wall time for SCF calculation [min]:                      37.008
 
 CPU time for orbital localization [min]:                   0.709
 Wall time for orbital localization [min]:                  0.058
 
 CPU time for integral transformations [min]:           23406.118
 Wall time for integral transformations [min]:            422.658
 
 Reference energy [au]:                                -20670.815796972172
 
 LMP2 correlation energy [au]:                             -5.383126295116
 Total LMP2 energy [au]:                               -20676.198923267290
 
 Total MP2 correction for dropped NAFs [au]:               -0.000044164133
 Total MP2 correction [au]:                                -0.028337904605
 
 CPU time for CCSD calculations [min]:                   7887.052
 Total CPU time for CCSD [min]:                         34242.837
 Wall time for CCSD calculations [min]:                   123.835
 Total wall time for CCSD [min]:                          686.339
 
 CCSD correlation energy [au]:                             -5.303456539909
 Total CCSD energy [au]:                               -20676.119253512083
 CCSD correlation energy + 0.5 MP2 corrections [au]:       -5.317625492211
 Total LNO-CCSD energy with MP2 corrections [au]:      -20676.133422464383
 
 CPU time for (T) corrections [min]:                    13487.415
 Total CPU time for CCSD(T) [min]:                      47730.252
 Wall time for (T) corrections [min]:                     193.107
 Total wall time for CCSD(T) [min]:                       879.446
 
 Total (T) correlation energy contribution [au]:           -0.250321628729
 Total (T) correlation energy+0.5 MP2 correction [au]:     -0.264490581032
 CCSD(T) correlation energy [au]:                          -5.553778168638
 Total CCSD(T) energy [au]:                            -20676.369575140809
 CCSD(T) correlation energy + MP2 corrections [au]:        -5.582116073243
 Total LNO-CCSD(T) energy with MP2 corrections [au]:   -20676.397913045417
 
 ======================================================================
 ======================================================================
 
 ************************ 2021-12-05 14:20:21 *************************
                      Normal termination of mrcc.
 **********************************************************************
