 **********************************************************************
                          MRCC program system
 **********************************************************************
 
                              Written by
 Mihaly Kallay, Peter R. Nagy, David Mester, Zoltan Rolik, Gyula Samu,
   Jozsef Csontos, Jozsef Csoka, P. Bernat Szabo, Laszlo Gyevi-Nagy,
    Bence Hegely, Istvan Ladjanszki, Lorant Szegedy, Bence Ladoczki,
       Klara Petrov, Mate Farkas, Pal D. Mezei, and Adam Ganyecz
 
        Department of Physical Chemistry and Materials Science
            Budapest University of Technology and Economics
                  Budapest P.O.Box 91, H-1521 Hungary
 
                              www.mrcc.hu
 
                    Release date: February 22, 2020

 ************************ 2021-11-09 00:42:59 *************************
 Executing minp...

 Reading input from MINP...
 
 Input file:
 
calc=LNO-CCSD(T)
scftype=rhf
verbosity=3
mem=470GB
symm=off
unit=angs
scfiguess=restart
scfmaxit=1000
lcorthr=loose
scfalg=locfit1

ccmaxit=400
usedisk=0
ccsdalg=dfdirect
ccsdthreads=4
ccsdmkl=thr
ptthreads=4

charge=-26
core=48

basis=special
def2-TZVPP
def2-TZVPP
def2-TZVPP
def2-TZVPP
def2-TZVPP
def2-TZVPP
def2-TZVPP
def2-TZVPP
def2-TZVPP
def2-TZVPP
def2-TZVPP
def2-TZVPP
def2-TZVPP
def2-TZVPP
def2-TZVPP
def2-TZVPP
def2-TZVPP
def2-TZVPP
def2-TZVPP
def2-TZVPP
def2-TZVPP
def2-TZVPP
def2-TZVPP
def2-TZVPP
def2-TZVPP
nothing
nothing
nothing
nothing
nothing
nothing
nothing
nothing
nothing
nothing
nothing
nothing
nothing
nothing
nothing
nothing
nothing
nothing
nothing
nothing
nothing
nothing
nothing
nothing
nothing
nothing
nothing
nothing
nothing
nothing
nothing
nothing
nothing
nothing
nothing
nothing
nothing
nothing
nothing
nothing
nothing
nothing
nothing
nothing
nothing
nothing
nothing
nothing
nothing
nothing
nothing
nothing
nothing
nothing
nothing
nothing
nothing
nothing
nothing
nothing
nothing
nothing
nothing
nothing
nothing
nothing
nothing
nothing
nothing
nothing
nothing
nothing
nothing
nothing
nothing
nothing
nothing
nothing
nothing
nothing
nothing
nothing
nothing
nothing
nothing
nothing
nothing
nothing
nothing
nothing
nothing
nothing
nothing
nothing
nothing
nothing
nothing
nothing
nothing
nothing
nothing
nothing
nothing
nothing
nothing
nothing
nothing
nothing
nothing
nothing
nothing
nothing
nothing
nothing
nothing
nothing
nothing
nothing
nothing
nothing
nothing
nothing
nothing
nothing
nothing
nothing
nothing
nothing
nothing
nothing
nothing
nothing
nothing
nothing
nothing
nothing
nothing
nothing
nothing
nothing
nothing
nothing
nothing
nothing
nothing
nothing
nothing
nothing
nothing
nothing
nothing
nothing
nothing
nothing
nothing
nothing
nothing
nothing
nothing
nothing
nothing
nothing
nothing
nothing
nothing
nothing
nothing
nothing
nothing
nothing
nothing
nothing
nothing
nothing
nothing
nothing
nothing
nothing
nothing
nothing
nothing
nothing
nothing
nothing
nothing
nothing
nothing
nothing
nothing
nothing
nothing
nothing
nothing
nothing
nothing
nothing
nothing
nothing
nothing
nothing
nothing
nothing
nothing
nothing
nothing
nothing
nothing
nothing
nothing
nothing
nothing
nothing
nothing
nothing
nothing
nothing
nothing
nothing
nothing
nothing
nothing
nothing
nothing
nothing
nothing
nothing
nothing
nothing
nothing
nothing
nothing
nothing
nothing
nothing
nothing
nothing
nothing
nothing
nothing
nothing
nothing
nothing
nothing
nothing
nothing
nothing
nothing
nothing
nothing
nothing
nothing
nothing
nothing
nothing
nothing
nothing
nothing
nothing
nothing
nothing

basis_sm=special
STO-3G
STO-3G
STO-3G
STO-3G
STO-3G
STO-3G
STO-3G
STO-3G
STO-3G
STO-3G
STO-3G
STO-3G
STO-3G
STO-3G
STO-3G
STO-3G
STO-3G
STO-3G
STO-3G
STO-3G
STO-3G
STO-3G
STO-3G
STO-3G
STO-3G
nothing
nothing
nothing
nothing
nothing
nothing
nothing
nothing
nothing
nothing
nothing
nothing
nothing
nothing
nothing
nothing
nothing
nothing
nothing
nothing
nothing
nothing
nothing
nothing
nothing
nothing
nothing
nothing
nothing
nothing
nothing
nothing
nothing
nothing
nothing
nothing
nothing
nothing
nothing
nothing
nothing
nothing
nothing
nothing
nothing
nothing
nothing
nothing
nothing
nothing
nothing
nothing
nothing
nothing
nothing
nothing
nothing
nothing
nothing
nothing
nothing
nothing
nothing
nothing
nothing
nothing
nothing
nothing
nothing
nothing
nothing
nothing
nothing
nothing
nothing
nothing
nothing
nothing
nothing
nothing
nothing
nothing
nothing
nothing
nothing
nothing
nothing
nothing
nothing
nothing
nothing
nothing
nothing
nothing
nothing
nothing
nothing
nothing
nothing
nothing
nothing
nothing
nothing
nothing
nothing
nothing
nothing
nothing
nothing
nothing
nothing
nothing
nothing
nothing
nothing
nothing
nothing
nothing
nothing
nothing
nothing
nothing
nothing
nothing
nothing
nothing
nothing
nothing
nothing
nothing
nothing
nothing
nothing
nothing
nothing
nothing
nothing
nothing
nothing
nothing
nothing
nothing
nothing
nothing
nothing
nothing
nothing
nothing
nothing
nothing
nothing
nothing
nothing
nothing
nothing
nothing
nothing
nothing
nothing
nothing
nothing
nothing
nothing
nothing
nothing
nothing
nothing
nothing
nothing
nothing
nothing
nothing
nothing
nothing
nothing
nothing
nothing
nothing
nothing
nothing
nothing
nothing
nothing
nothing
nothing
nothing
nothing
nothing
nothing
nothing
nothing
nothing
nothing
nothing
nothing
nothing
nothing
nothing
nothing
nothing
nothing
nothing
nothing
nothing
nothing
nothing
nothing
nothing
nothing
nothing
nothing
nothing
nothing
nothing
nothing
nothing
nothing
nothing
nothing
nothing
nothing
nothing
nothing
nothing
nothing
nothing
nothing
nothing
nothing
nothing
nothing
nothing
nothing
nothing
nothing
nothing
nothing
nothing
nothing
nothing
nothing
nothing
nothing
nothing
nothing
nothing
nothing
nothing
nothing
nothing
nothing
nothing
nothing
nothing
nothing
nothing
nothing
nothing
nothing
nothing

dfbasis_scf=special
def2-QZVPP-RI-JK
def2-QZVPP-RI-JK
def2-QZVPP-RI-JK
def2-QZVPP-RI-JK
def2-QZVPP-RI-JK
def2-QZVPP-RI-JK
def2-QZVPP-RI-JK
def2-QZVPP-RI-JK
def2-QZVPP-RI-JK
def2-QZVPP-RI-JK
def2-QZVPP-RI-JK
def2-QZVPP-RI-JK
def2-QZVPP-RI-JK
def2-QZVPP-RI-JK
def2-QZVPP-RI-JK
def2-QZVPP-RI-JK
def2-QZVPP-RI-JK
def2-QZVPP-RI-JK
def2-QZVPP-RI-JK
def2-QZVPP-RI-JK
def2-QZVPP-RI-JK
def2-QZVPP-RI-JK
def2-QZVPP-RI-JK
def2-QZVPP-RI-JK
def2-QZVPP-RI-JK
nothing
nothing
nothing
nothing
nothing
nothing
nothing
nothing
nothing
nothing
nothing
nothing
nothing
nothing
nothing
nothing
nothing
nothing
nothing
nothing
nothing
nothing
nothing
nothing
nothing
nothing
nothing
nothing
nothing
nothing
nothing
nothing
nothing
nothing
nothing
nothing
nothing
nothing
nothing
nothing
nothing
nothing
nothing
nothing
nothing
nothing
nothing
nothing
nothing
nothing
nothing
nothing
nothing
nothing
nothing
nothing
nothing
nothing
nothing
nothing
nothing
nothing
nothing
nothing
nothing
nothing
nothing
nothing
nothing
nothing
nothing
nothing
nothing
nothing
nothing
nothing
nothing
nothing
nothing
nothing
nothing
nothing
nothing
nothing
nothing
nothing
nothing
nothing
nothing
nothing
nothing
nothing
nothing
nothing
nothing
nothing
nothing
nothing
nothing
nothing
nothing
nothing
nothing
nothing
nothing
nothing
nothing
nothing
nothing
nothing
nothing
nothing
nothing
nothing
nothing
nothing
nothing
nothing
nothing
nothing
nothing
nothing
nothing
nothing
nothing
nothing
nothing
nothing
nothing
nothing
nothing
nothing
nothing
nothing
nothing
nothing
nothing
nothing
nothing
nothing
nothing
nothing
nothing
nothing
nothing
nothing
nothing
nothing
nothing
nothing
nothing
nothing
nothing
nothing
nothing
nothing
nothing
nothing
nothing
nothing
nothing
nothing
nothing
nothing
nothing
nothing
nothing
nothing
nothing
nothing
nothing
nothing
nothing
nothing
nothing
nothing
nothing
nothing
nothing
nothing
nothing
nothing
nothing
nothing
nothing
nothing
nothing
nothing
nothing
nothing
nothing
nothing
nothing
nothing
nothing
nothing
nothing
nothing
nothing
nothing
nothing
nothing
nothing
nothing
nothing
nothing
nothing
nothing
nothing
nothing
nothing
nothing
nothing
nothing
nothing
nothing
nothing
nothing
nothing
nothing
nothing
nothing
nothing
nothing
nothing
nothing
nothing
nothing
nothing
nothing
nothing
nothing
nothing
nothing
nothing
nothing
nothing
nothing
nothing
nothing
nothing
nothing
nothing
nothing
nothing
nothing
nothing
nothing
nothing
nothing
nothing
nothing
nothing
nothing
nothing
nothing
nothing
nothing
nothing
nothing

dfbasis_cor=special
def2-TZVPP-RI
def2-TZVPP-RI
def2-TZVPP-RI
def2-TZVPP-RI
def2-TZVPP-RI
def2-TZVPP-RI
def2-TZVPP-RI
def2-TZVPP-RI
def2-TZVPP-RI
def2-TZVPP-RI
def2-TZVPP-RI
def2-TZVPP-RI
def2-TZVPP-RI
def2-TZVPP-RI
def2-TZVPP-RI
def2-TZVPP-RI
def2-TZVPP-RI
def2-TZVPP-RI
def2-TZVPP-RI
def2-TZVPP-RI
def2-TZVPP-RI
def2-TZVPP-RI
def2-TZVPP-RI
def2-TZVPP-RI
def2-TZVPP-RI
nothing
nothing
nothing
nothing
nothing
nothing
nothing
nothing
nothing
nothing
nothing
nothing
nothing
nothing
nothing
nothing
nothing
nothing
nothing
nothing
nothing
nothing
nothing
nothing
nothing
nothing
nothing
nothing
nothing
nothing
nothing
nothing
nothing
nothing
nothing
nothing
nothing
nothing
nothing
nothing
nothing
nothing
nothing
nothing
nothing
nothing
nothing
nothing
nothing
nothing
nothing
nothing
nothing
nothing
nothing
nothing
nothing
nothing
nothing
nothing
nothing
nothing
nothing
nothing
nothing
nothing
nothing
nothing
nothing
nothing
nothing
nothing
nothing
nothing
nothing
nothing
nothing
nothing
nothing
nothing
nothing
nothing
nothing
nothing
nothing
nothing
nothing
nothing
nothing
nothing
nothing
nothing
nothing
nothing
nothing
nothing
nothing
nothing
nothing
nothing
nothing
nothing
nothing
nothing
nothing
nothing
nothing
nothing
nothing
nothing
nothing
nothing
nothing
nothing
nothing
nothing
nothing
nothing
nothing
nothing
nothing
nothing
nothing
nothing
nothing
nothing
nothing
nothing
nothing
nothing
nothing
nothing
nothing
nothing
nothing
nothing
nothing
nothing
nothing
nothing
nothing
nothing
nothing
nothing
nothing
nothing
nothing
nothing
nothing
nothing
nothing
nothing
nothing
nothing
nothing
nothing
nothing
nothing
nothing
nothing
nothing
nothing
nothing
nothing
nothing
nothing
nothing
nothing
nothing
nothing
nothing
nothing
nothing
nothing
nothing
nothing
nothing
nothing
nothing
nothing
nothing
nothing
nothing
nothing
nothing
nothing
nothing
nothing
nothing
nothing
nothing
nothing
nothing
nothing
nothing
nothing
nothing
nothing
nothing
nothing
nothing
nothing
nothing
nothing
nothing
nothing
nothing
nothing
nothing
nothing
nothing
nothing
nothing
nothing
nothing
nothing
nothing
nothing
nothing
nothing
nothing
nothing
nothing
nothing
nothing
nothing
nothing
nothing
nothing
nothing
nothing
nothing
nothing
nothing
nothing
nothing
nothing
nothing
nothing
nothing
nothing
nothing
nothing
nothing
nothing
nothing
nothing
nothing
nothing
nothing
nothing
nothing
nothing
nothing
nothing
nothing
nothing
nothing
nothing
nothing

ecp=special
none
none
none
none
none
none
none
none
none
none
none
none
none
none
none
none
none
none
none
none
none
none
none
none
none
ECP-12
ECP-12
ECP-12
ECP-12
ECP-12
ECP-12
ECP-12
ECP-12
ECP-12
ECP-12
ECP-12
ECP-12
ECP-12
ECP-12
ECP-12
ECP-12
ECP-12
ECP-12
ECP-12
ECP-12
ECP-12
ECP-12
ECP-12
ECP-12
ECP-12
ECP-12
ECP-12
ECP-12
ECP-12
ECP-12
ECP-12
ECP-12
ECP-12
ECP-12
ECP-12
ECP-12
ECP-12
ECP-12
ECP-12
ECP-12
ECP-12
ECP-12
ECP-12
ECP-12
ECP-12
ECP-12
ECP-12
ECP-12
ECP-12
ECP-12
ECP-12
ECP-12
ECP-12
ECP-12
ECP-12
ECP-12
ECP-12
ECP-12
ECP-12
ECP-12
ECP-12
ECP-12
ECP-12
ECP-12
ECP-12
ECP-12
ECP-12
ECP-12
ECP-12
ECP-12
ECP-12
ECP-12
ECP-12
ECP-12
ECP-12
ECP-12
ECP-12
ECP-12
ECP-12
ECP-12
ECP-12
ECP-12
ECP-12
ECP-12
ECP-12
ECP-12
ECP-12
ECP-12
ECP-12
ECP-12
ECP-12
ECP-12
ECP-12
ECP-12
ECP-12
ECP-12
ECP-12
ECP-12
ECP-12
ECP-12
ECP-12
ECP-12
ECP-12
ECP-12
ECP-12
ECP-12
ECP-12
ECP-12
ECP-12
ECP-12
ECP-12
ECP-12
ECP-12
ECP-12
ECP-12
ECP-12
ECP-12
ECP-12
ECP-12
ECP-12
ECP-12
ECP-12
ECP-12
ECP-12
ECP-12
ECP-12
ECP-12
ECP-12
ECP-12
ECP-12
ECP-12
ECP-12
ECP-12
ECP-12
ECP-12
ECP-12
ECP-12
ECP-12
ECP-12
ECP-12
ECP-12
ECP-12
ECP-12
ECP-12
ECP-12
ECP-12
ECP-12
ECP-12
ECP-12
ECP-12
ECP-12
ECP-12
ECP-12
ECP-12
ECP-12
ECP-12
ECP-12
ECP-12
ECP-12
ECP-12
ECP-12
ECP-12
ECP-12
ECP-12
ECP-12
ECP-12
ECP-12
ECP-12
ECP-12
ECP-12
ECP-12
ECP-12
ECP-12
ECP-12
ECP-12
ECP-12
ECP-12
ECP-12
ECP-12
ECP-12
ECP-12
ECP-12
ECP-12
ECP-12
ECP-12
ECP-12
ECP-12
ECP-12
ECP-12
ECP-12
ECP-12
ECP-12
ECP-12
ECP-12
ECP-12
ECP-12
ECP-12
ECP-12
ECP-12
ECP-12
ECP-12
ECP-12
ECP-12
ECP-12
ECP-12
ECP-12
ECP-12
ECP-12
ECP-12
ECP-12
ECP-12
ECP-12
ECP-12
ECP-12
ECP-12
ECP-12
ECP-12
ECP-12
ECP-12
ECP-12
ECP-12
ECP-12
ECP-12
ECP-12
ECP-12
ECP-12
ECP-12
ECP-12
ECP-12
ECP-12
ECP-12
ECP-12
ECP-12
ECP-12
ECP-12
ECP-12
ECP-12
ECP-12
ECP-12
ECP-12
ECP-12
ECP-12
ECP-12
ECP-12
ECP-12
ECP-12
ECP-12
ECP-12
ECP-12
ECP-12
ECP-12
ECP-12
ECP-12
ECP-12
ECP-12
ECP-12
ECP-12
ECP-12
ECP-12
ECP-12

unit=angs
geom=xyz
285

O     0.00000000000    0.00000000000    0.00000000000
Mg    0.00000000000    0.00000000000    2.10322906414
Mg   -2.10322906414    0.00000000000    0.00000000000
Mg    0.00000000000    2.10322906414    0.00000000000
Mg    2.10322906414    0.00000000000    0.00000000000
Mg    0.00000000000   -2.10322906414    0.00000000000
Mg    0.00000000000    0.00000000000   -2.10322906414
O    -2.10322906414    0.00000000000    2.10322906414
O     0.00000000000    2.10322906414    2.10322906414
O     2.10322906414    0.00000000000    2.10322906414
O     0.00000000000   -2.10322906414    2.10322906414
O    -2.10322906414    2.10322906414    0.00000000000
O     2.10322906414    2.10322906414    0.00000000000
O     2.10322906414   -2.10322906414    0.00000000000
O    -2.10322906414   -2.10322906414    0.00000000000
O    -2.10322906414    0.00000000000   -2.10322906414
O     0.00000000000    2.10322906414   -2.10322906414
O     2.10322906414    0.00000000000   -2.10322906414
O     0.00000000000   -2.10322906414   -2.10322906414
O     0.00000000000    0.00000000000    4.20645812828
O    -4.20645812828    0.00000000000    0.00000000000
O     0.00000000000    4.20645812828    0.00000000000
O     4.20645812828    0.00000000000    0.00000000000
O     0.00000000000   -4.20645812828    0.00000000000
O     0.00000000000    0.00000000000   -4.20645812828
Mg   -2.10322906414    2.10322906414    2.10322906414
Mg    2.10322906414    2.10322906414    2.10322906414
Mg    2.10322906414   -2.10322906414    2.10322906414
Mg   -2.10322906414   -2.10322906414    2.10322906414
Mg   -2.10322906414    2.10322906414   -2.10322906414
Mg    2.10322906414    2.10322906414   -2.10322906414
Mg    2.10322906414   -2.10322906414   -2.10322906414
Mg   -2.10322906414   -2.10322906414   -2.10322906414
Mg   -2.10322906414    0.00000000000    4.20645812828
Mg    0.00000000000    2.10322906414    4.20645812828
Mg    2.10322906414    0.00000000000    4.20645812828
Mg    0.00000000000   -2.10322906414    4.20645812828
Mg   -4.20645812828    0.00000000000    2.10322906414
Mg    0.00000000000    4.20645812828    2.10322906414
Mg    4.20645812828    0.00000000000    2.10322906414
Mg    0.00000000000   -4.20645812828    2.10322906414
Mg   -4.20645812828    2.10322906414    0.00000000000
Mg   -2.10322906414    4.20645812828    0.00000000000
Mg    2.10322906414    4.20645812828    0.00000000000
Mg    4.20645812828    2.10322906414    0.00000000000
Mg    4.20645812828   -2.10322906414    0.00000000000
Mg    2.10322906414   -4.20645812828    0.00000000000
Mg   -2.10322906414   -4.20645812828    0.00000000000
Mg   -4.20645812828   -2.10322906414    0.00000000000
Mg   -4.20645812828    0.00000000000   -2.10322906414
Mg    0.00000000000    4.20645812828   -2.10322906414
Mg    4.20645812828    0.00000000000   -2.10322906414
Mg    0.00000000000   -4.20645812828   -2.10322906414
Mg   -2.10322906414    0.00000000000   -4.20645812828
Mg    0.00000000000    2.10322906414   -4.20645812828
Mg    2.10322906414    0.00000000000   -4.20645812828
Mg    0.00000000000   -2.10322906414   -4.20645812828
Mg    0.00000000000    0.00000000000    6.30968719243
Mg   -4.20645812828    2.10322906414    4.20645812828
Mg   -2.10322906414    4.20645812828    4.20645812828
Mg    2.10322906414    4.20645812828    4.20645812828
Mg    4.20645812828    2.10322906414    4.20645812828
Mg    4.20645812828   -2.10322906414    4.20645812828
Mg    2.10322906414   -4.20645812828    4.20645812828
Mg   -2.10322906414   -4.20645812828    4.20645812828
Mg   -4.20645812828   -2.10322906414    4.20645812828
Mg   -4.20645812828    4.20645812828    2.10322906414
Mg    4.20645812828    4.20645812828    2.10322906414
Mg    4.20645812828   -4.20645812828    2.10322906414
Mg   -4.20645812828   -4.20645812828    2.10322906414
Mg   -6.30968719243    0.00000000000    0.00000000000
Mg    0.00000000000    6.30968719243    0.00000000000
Mg    6.30968719243    0.00000000000    0.00000000000
Mg    0.00000000000   -6.30968719243    0.00000000000
Mg   -4.20645812828    4.20645812828   -2.10322906414
Mg    4.20645812828    4.20645812828   -2.10322906414
Mg    4.20645812828   -4.20645812828   -2.10322906414
Mg   -4.20645812828   -4.20645812828   -2.10322906414
Mg   -4.20645812828    2.10322906414   -4.20645812828
Mg   -2.10322906414    4.20645812828   -4.20645812828
Mg    2.10322906414    4.20645812828   -4.20645812828
Mg    4.20645812828    2.10322906414   -4.20645812828
Mg    4.20645812828   -2.10322906414   -4.20645812828
Mg    2.10322906414   -4.20645812828   -4.20645812828
Mg   -2.10322906414   -4.20645812828   -4.20645812828
Mg   -4.20645812828   -2.10322906414   -4.20645812828
Mg    0.00000000000    0.00000000000   -6.30968719243
Mg   -2.10322906414    2.10322906414    6.30968719243
Mg    2.10322906414    2.10322906414    6.30968719243
Mg    2.10322906414   -2.10322906414    6.30968719243
Mg   -2.10322906414   -2.10322906414    6.30968719243
Mg   -6.30968719243    2.10322906414    2.10322906414
Mg   -2.10322906414    6.30968719243    2.10322906414
Mg    2.10322906414    6.30968719243    2.10322906414
Mg    6.30968719243    2.10322906414    2.10322906414
Mg    6.30968719243   -2.10322906414    2.10322906414
Mg    2.10322906414   -6.30968719243    2.10322906414
Mg   -2.10322906414   -6.30968719243    2.10322906414
Mg   -6.30968719243   -2.10322906414    2.10322906414
Mg   -6.30968719243    2.10322906414   -2.10322906414
Mg   -2.10322906414    6.30968719243   -2.10322906414
Mg    2.10322906414    6.30968719243   -2.10322906414
Mg    6.30968719243    2.10322906414   -2.10322906414
Mg    6.30968719243   -2.10322906414   -2.10322906414
Mg    2.10322906414   -6.30968719243   -2.10322906414
Mg   -2.10322906414   -6.30968719243   -2.10322906414
Mg   -6.30968719243   -2.10322906414   -2.10322906414
Mg   -2.10322906414    2.10322906414   -6.30968719243
Mg    2.10322906414    2.10322906414   -6.30968719243
Mg    2.10322906414   -2.10322906414   -6.30968719243
Mg   -2.10322906414   -2.10322906414   -6.30968719243
Mg   -4.20645812828    0.00000000000    6.30968719243
Mg    0.00000000000    4.20645812828    6.30968719243
Mg    4.20645812828    0.00000000000    6.30968719243
Mg    0.00000000000   -4.20645812828    6.30968719243
Mg   -6.30968719243    0.00000000000    4.20645812828
Mg    0.00000000000    6.30968719243    4.20645812828
Mg    6.30968719243    0.00000000000    4.20645812828
Mg    0.00000000000   -6.30968719243    4.20645812828
Mg   -6.30968719243    4.20645812828    0.00000000000
Mg   -4.20645812828    6.30968719243    0.00000000000
Mg    4.20645812828    6.30968719243    0.00000000000
Mg    6.30968719243    4.20645812828    0.00000000000
Mg    6.30968719243   -4.20645812828    0.00000000000
Mg    4.20645812828   -6.30968719243    0.00000000000
Mg   -4.20645812828   -6.30968719243    0.00000000000
Mg   -6.30968719243   -4.20645812828    0.00000000000
Mg   -6.30968719243    0.00000000000   -4.20645812828
Mg    0.00000000000    6.30968719243   -4.20645812828
Mg    6.30968719243    0.00000000000   -4.20645812828
Mg    0.00000000000   -6.30968719243   -4.20645812828
Mg   -4.20645812828    0.00000000000   -6.30968719243
Mg    0.00000000000    4.20645812828   -6.30968719243
Mg    4.20645812828    0.00000000000   -6.30968719243
Mg    0.00000000000   -4.20645812828   -6.30968719243
Mg   -2.10322906414    0.00000000000    8.41291625657
Mg    0.00000000000    2.10322906414    8.41291625657
Mg    2.10322906414    0.00000000000    8.41291625657
Mg    0.00000000000   -2.10322906414    8.41291625657
Mg   -4.20645812828    4.20645812828    6.30968719243
Mg    4.20645812828    4.20645812828    6.30968719243
Mg    4.20645812828   -4.20645812828    6.30968719243
Mg   -4.20645812828   -4.20645812828    6.30968719243
Mg   -6.30968719243    4.20645812828    4.20645812828
Mg   -4.20645812828    6.30968719243    4.20645812828
Mg    4.20645812828    6.30968719243    4.20645812828
Mg    6.30968719243    4.20645812828    4.20645812828
Mg    6.30968719243   -4.20645812828    4.20645812828
Mg    4.20645812828   -6.30968719243    4.20645812828
Mg   -4.20645812828   -6.30968719243    4.20645812828
Mg   -6.30968719243   -4.20645812828    4.20645812828
Mg   -8.41291625657    0.00000000000    2.10322906414
Mg    0.00000000000    8.41291625657    2.10322906414
Mg    8.41291625657    0.00000000000    2.10322906414
Mg    0.00000000000   -8.41291625657    2.10322906414
Mg   -8.41291625657    2.10322906414    0.00000000000
Mg   -2.10322906414    8.41291625657    0.00000000000
Mg    2.10322906414    8.41291625657    0.00000000000
Mg    8.41291625657    2.10322906414    0.00000000000
Mg    8.41291625657   -2.10322906414    0.00000000000
Mg    2.10322906414   -8.41291625657    0.00000000000
Mg   -2.10322906414   -8.41291625657    0.00000000000
Mg   -8.41291625657   -2.10322906414    0.00000000000
Mg   -8.41291625657    0.00000000000   -2.10322906414
Mg    0.00000000000    8.41291625657   -2.10322906414
Mg    8.41291625657    0.00000000000   -2.10322906414
Mg    0.00000000000   -8.41291625657   -2.10322906414
Mg   -6.30968719243    4.20645812828   -4.20645812828
Mg   -4.20645812828    6.30968719243   -4.20645812828
Mg    4.20645812828    6.30968719243   -4.20645812828
Mg    6.30968719243    4.20645812828   -4.20645812828
Mg    6.30968719243   -4.20645812828   -4.20645812828
Mg    4.20645812828   -6.30968719243   -4.20645812828
Mg   -4.20645812828   -6.30968719243   -4.20645812828
Mg   -6.30968719243   -4.20645812828   -4.20645812828
Mg   -4.20645812828    4.20645812828   -6.30968719243
Mg    4.20645812828    4.20645812828   -6.30968719243
Mg    4.20645812828   -4.20645812828   -6.30968719243
Mg   -4.20645812828   -4.20645812828   -6.30968719243
Mg   -2.10322906414    0.00000000000   -8.41291625657
Mg    0.00000000000    2.10322906414   -8.41291625657
Mg    2.10322906414    0.00000000000   -8.41291625657
Mg    0.00000000000   -2.10322906414   -8.41291625657
Mg   -6.30968719243    2.10322906414    6.30968719243
Mg   -2.10322906414    6.30968719243    6.30968719243
Mg    2.10322906414    6.30968719243    6.30968719243
Mg    6.30968719243    2.10322906414    6.30968719243
Mg    6.30968719243   -2.10322906414    6.30968719243
Mg    2.10322906414   -6.30968719243    6.30968719243
Mg   -2.10322906414   -6.30968719243    6.30968719243
Mg   -6.30968719243   -2.10322906414    6.30968719243
Mg   -6.30968719243    6.30968719243    2.10322906414
Mg    6.30968719243    6.30968719243    2.10322906414
Mg    6.30968719243   -6.30968719243    2.10322906414
Mg   -6.30968719243   -6.30968719243    2.10322906414
Mg   -6.30968719243    6.30968719243   -2.10322906414
Mg    6.30968719243    6.30968719243   -2.10322906414
Mg    6.30968719243   -6.30968719243   -2.10322906414
Mg   -6.30968719243   -6.30968719243   -2.10322906414
Mg   -6.30968719243    2.10322906414   -6.30968719243
Mg   -2.10322906414    6.30968719243   -6.30968719243
Mg    2.10322906414    6.30968719243   -6.30968719243
Mg    6.30968719243    2.10322906414   -6.30968719243
Mg    6.30968719243   -2.10322906414   -6.30968719243
Mg    2.10322906414   -6.30968719243   -6.30968719243
Mg   -2.10322906414   -6.30968719243   -6.30968719243
Mg   -6.30968719243   -2.10322906414   -6.30968719243
Mg   -4.20645812828    2.10322906414    8.41291625657
Mg   -2.10322906414    4.20645812828    8.41291625657
Mg    2.10322906414    4.20645812828    8.41291625657
Mg    4.20645812828    2.10322906414    8.41291625657
Mg    4.20645812828   -2.10322906414    8.41291625657
Mg    2.10322906414   -4.20645812828    8.41291625657
Mg   -2.10322906414   -4.20645812828    8.41291625657
Mg   -4.20645812828   -2.10322906414    8.41291625657
Mg   -8.41291625657    2.10322906414    4.20645812828
Mg   -2.10322906414    8.41291625657    4.20645812828
Mg    2.10322906414    8.41291625657    4.20645812828
Mg    8.41291625657    2.10322906414    4.20645812828
Mg    8.41291625657   -2.10322906414    4.20645812828
Mg    2.10322906414   -8.41291625657    4.20645812828
Mg   -2.10322906414   -8.41291625657    4.20645812828
Mg   -8.41291625657   -2.10322906414    4.20645812828
Mg   -8.41291625657    4.20645812828    2.10322906414
Mg   -4.20645812828    8.41291625657    2.10322906414
Mg    4.20645812828    8.41291625657    2.10322906414
Mg    8.41291625657    4.20645812828    2.10322906414
Mg    8.41291625657   -4.20645812828    2.10322906414
Mg    4.20645812828   -8.41291625657    2.10322906414
Mg   -4.20645812828   -8.41291625657    2.10322906414
Mg   -8.41291625657   -4.20645812828    2.10322906414
Mg   -8.41291625657    4.20645812828   -2.10322906414
Mg   -4.20645812828    8.41291625657   -2.10322906414
Mg    4.20645812828    8.41291625657   -2.10322906414
Mg    8.41291625657    4.20645812828   -2.10322906414
Mg    8.41291625657   -4.20645812828   -2.10322906414
Mg    4.20645812828   -8.41291625657   -2.10322906414
Mg   -4.20645812828   -8.41291625657   -2.10322906414
Mg   -8.41291625657   -4.20645812828   -2.10322906414
Mg   -8.41291625657    2.10322906414   -4.20645812828
Mg   -2.10322906414    8.41291625657   -4.20645812828
Mg    2.10322906414    8.41291625657   -4.20645812828
Mg    8.41291625657    2.10322906414   -4.20645812828
Mg    8.41291625657   -2.10322906414   -4.20645812828
Mg    2.10322906414   -8.41291625657   -4.20645812828
Mg   -2.10322906414   -8.41291625657   -4.20645812828
Mg   -8.41291625657   -2.10322906414   -4.20645812828
Mg   -4.20645812828    2.10322906414   -8.41291625657
Mg   -2.10322906414    4.20645812828   -8.41291625657
Mg    2.10322906414    4.20645812828   -8.41291625657
Mg    4.20645812828    2.10322906414   -8.41291625657
Mg    4.20645812828   -2.10322906414   -8.41291625657
Mg    2.10322906414   -4.20645812828   -8.41291625657
Mg   -2.10322906414   -4.20645812828   -8.41291625657
Mg   -4.20645812828   -2.10322906414   -8.41291625657
Mg    0.00000000000    0.00000000000   10.51614532071
Mg  -10.51614532071    0.00000000000    0.00000000000
Mg    0.00000000000   10.51614532071    0.00000000000
Mg   10.51614532071    0.00000000000    0.00000000000
Mg    0.00000000000  -10.51614532071    0.00000000000
Mg    0.00000000000    0.00000000000  -10.51614532071
Mg   -2.10322906414    2.10322906414   10.51614532071
Mg    2.10322906414    2.10322906414   10.51614532071
Mg    2.10322906414   -2.10322906414   10.51614532071
Mg   -2.10322906414   -2.10322906414   10.51614532071
Mg  -10.51614532071    2.10322906414    2.10322906414
Mg   -2.10322906414   10.51614532071    2.10322906414
Mg    2.10322906414   10.51614532071    2.10322906414
Mg   10.51614532071    2.10322906414    2.10322906414
Mg   10.51614532071   -2.10322906414    2.10322906414
Mg    2.10322906414  -10.51614532071    2.10322906414
Mg   -2.10322906414  -10.51614532071    2.10322906414
Mg  -10.51614532071   -2.10322906414    2.10322906414
Mg  -10.51614532071    2.10322906414   -2.10322906414
Mg   -2.10322906414   10.51614532071   -2.10322906414
Mg    2.10322906414   10.51614532071   -2.10322906414
Mg   10.51614532071    2.10322906414   -2.10322906414
Mg   10.51614532071   -2.10322906414   -2.10322906414
Mg    2.10322906414  -10.51614532071   -2.10322906414
Mg   -2.10322906414  -10.51614532071   -2.10322906414
Mg  -10.51614532071   -2.10322906414   -2.10322906414
Mg   -2.10322906414    2.10322906414  -10.51614532071
Mg    2.10322906414    2.10322906414  -10.51614532071
Mg    2.10322906414   -2.10322906414  -10.51614532071
Mg   -2.10322906414   -2.10322906414  -10.51614532071

ghost=serialno
1

qmmm=Amber
pointcharges
12124
     -2.10322906414    2.10322906414    2.10322906414    2.00000000000
      2.10322906414    2.10322906414    2.10322906414    2.00000000000
      2.10322906414   -2.10322906414    2.10322906414    2.00000000000
     -2.10322906414   -2.10322906414    2.10322906414    2.00000000000
     -2.10322906414    2.10322906414   -2.10322906414    2.00000000000
      2.10322906414    2.10322906414   -2.10322906414    2.00000000000
      2.10322906414   -2.10322906414   -2.10322906414    2.00000000000
     -2.10322906414   -2.10322906414   -2.10322906414    2.00000000000
     -2.10322906414    0.00000000000    4.20645812828    2.00000000000
      0.00000000000    2.10322906414    4.20645812828    2.00000000000
      2.10322906414    0.00000000000    4.20645812828    2.00000000000
      0.00000000000   -2.10322906414    4.20645812828    2.00000000000
     -4.20645812828    0.00000000000    2.10322906414    2.00000000000
      0.00000000000    4.20645812828    2.10322906414    2.00000000000
      4.20645812828    0.00000000000    2.10322906414    2.00000000000
      0.00000000000   -4.20645812828    2.10322906414    2.00000000000
     -4.20645812828    2.10322906414    0.00000000000    2.00000000000
     -2.10322906414    4.20645812828    0.00000000000    2.00000000000
      2.10322906414    4.20645812828    0.00000000000    2.00000000000
      4.20645812828    2.10322906414    0.00000000000    2.00000000000
      4.20645812828   -2.10322906414    0.00000000000    2.00000000000
      2.10322906414   -4.20645812828    0.00000000000    2.00000000000
     -2.10322906414   -4.20645812828    0.00000000000    2.00000000000
     -4.20645812828   -2.10322906414    0.00000000000    2.00000000000
     -4.20645812828    0.00000000000   -2.10322906414    2.00000000000
      0.00000000000    4.20645812828   -2.10322906414    2.00000000000
      4.20645812828    0.00000000000   -2.10322906414    2.00000000000
      0.00000000000   -4.20645812828   -2.10322906414    2.00000000000
     -2.10322906414    0.00000000000   -4.20645812828    2.00000000000
      0.00000000000    2.10322906414   -4.20645812828    2.00000000000
      2.10322906414    0.00000000000   -4.20645812828    2.00000000000
      0.00000000000   -2.10322906414   -4.20645812828    2.00000000000
     -2.10322906414    2.10322906414    4.20645812828   -2.00000000000
      2.10322906414    2.10322906414    4.20645812828   -2.00000000000
      2.10322906414   -2.10322906414    4.20645812828   -2.00000000000
     -2.10322906414   -2.10322906414    4.20645812828   -2.00000000000
     -4.20645812828    2.10322906414    2.10322906414   -2.00000000000
     -2.10322906414    4.20645812828    2.10322906414   -2.00000000000
      2.10322906414    4.20645812828    2.10322906414   -2.00000000000
      4.20645812828    2.10322906414    2.10322906414   -2.00000000000
      4.20645812828   -2.10322906414    2.10322906414   -2.00000000000
      2.10322906414   -4.20645812828    2.10322906414   -2.00000000000
     -2.10322906414   -4.20645812828    2.10322906414   -2.00000000000
     -4.20645812828   -2.10322906414    2.10322906414   -2.00000000000
     -4.20645812828    2.10322906414   -2.10322906414   -2.00000000000
     -2.10322906414    4.20645812828   -2.10322906414   -2.00000000000
      2.10322906414    4.20645812828   -2.10322906414   -2.00000000000
      4.20645812828    2.10322906414   -2.10322906414   -2.00000000000
      4.20645812828   -2.10322906414   -2.10322906414   -2.00000000000
      2.10322906414   -4.20645812828   -2.10322906414   -2.00000000000
     -2.10322906414   -4.20645812828   -2.10322906414   -2.00000000000
     -4.20645812828   -2.10322906414   -2.10322906414   -2.00000000000
     -2.10322906414    2.10322906414   -4.20645812828   -2.00000000000
      2.10322906414    2.10322906414   -4.20645812828   -2.00000000000
      2.10322906414   -2.10322906414   -4.20645812828   -2.00000000000
     -2.10322906414   -2.10322906414   -4.20645812828   -2.00000000000
     -4.20645812828    0.00000000000    4.20645812828   -2.00000000000
      0.00000000000    4.20645812828    4.20645812828   -2.00000000000
      4.20645812828    0.00000000000    4.20645812828   -2.00000000000
      0.00000000000   -4.20645812828    4.20645812828   -2.00000000000
     -4.20645812828    4.20645812828    0.00000000000   -2.00000000000
      4.20645812828    4.20645812828    0.00000000000   -2.00000000000
      4.20645812828   -4.20645812828    0.00000000000   -2.00000000000
     -4.20645812828   -4.20645812828    0.00000000000   -2.00000000000
     -4.20645812828    0.00000000000   -4.20645812828   -2.00000000000
      0.00000000000    4.20645812828   -4.20645812828   -2.00000000000
      4.20645812828    0.00000000000   -4.20645812828   -2.00000000000
      0.00000000000   -4.20645812828   -4.20645812828   -2.00000000000
      0.00000000000    0.00000000000    6.30968719243    2.00000000000
     -4.20645812828    2.10322906414    4.20645812828    2.00000000000
     -2.10322906414    4.20645812828    4.20645812828    2.00000000000
      2.10322906414    4.20645812828    4.20645812828    2.00000000000
      4.20645812828    2.10322906414    4.20645812828    2.00000000000
      4.20645812828   -2.10322906414    4.20645812828    2.00000000000
      2.10322906414   -4.20645812828    4.20645812828    2.00000000000
     -2.10322906414   -4.20645812828    4.20645812828    2.00000000000
     -4.20645812828   -2.10322906414    4.20645812828    2.00000000000
     -4.20645812828    4.20645812828    2.10322906414    2.00000000000
      4.20645812828    4.20645812828    2.10322906414    2.00000000000
      4.20645812828   -4.20645812828    2.10322906414    2.00000000000
     -4.20645812828   -4.20645812828    2.10322906414    2.00000000000
     -6.30968719243    0.00000000000    0.00000000000    2.00000000000
      0.00000000000    6.30968719243    0.00000000000    2.00000000000
      6.30968719243    0.00000000000    0.00000000000    2.00000000000
      0.00000000000   -6.30968719243    0.00000000000    2.00000000000
     -4.20645812828    4.20645812828   -2.10322906414    2.00000000000
      4.20645812828    4.20645812828   -2.10322906414    2.00000000000
      4.20645812828   -4.20645812828   -2.10322906414    2.00000000000
     -4.20645812828   -4.20645812828   -2.10322906414    2.00000000000
     -4.20645812828    2.10322906414   -4.20645812828    2.00000000000
     -2.10322906414    4.20645812828   -4.20645812828    2.00000000000
      2.10322906414    4.20645812828   -4.20645812828    2.00000000000
      4.20645812828    2.10322906414   -4.20645812828    2.00000000000
      4.20645812828   -2.10322906414   -4.20645812828    2.00000000000
      2.10322906414   -4.20645812828   -4.20645812828    2.00000000000
     -2.10322906414   -4.20645812828   -4.20645812828    2.00000000000
     -4.20645812828   -2.10322906414   -4.20645812828    2.00000000000
      0.00000000000    0.00000000000   -6.30968719243    2.00000000000
     -2.10322906414    0.00000000000    6.30968719243   -2.00000000000
      0.00000000000    2.10322906414    6.30968719243   -2.00000000000
      2.10322906414    0.00000000000    6.30968719243   -2.00000000000
      0.00000000000   -2.10322906414    6.30968719243   -2.00000000000
     -6.30968719243    0.00000000000    2.10322906414   -2.00000000000
      0.00000000000    6.30968719243    2.10322906414   -2.00000000000
      6.30968719243    0.00000000000    2.10322906414   -2.00000000000
      0.00000000000   -6.30968719243    2.10322906414   -2.00000000000
     -6.30968719243    2.10322906414    0.00000000000   -2.00000000000
     -2.10322906414    6.30968719243    0.00000000000   -2.00000000000
      2.10322906414    6.30968719243    0.00000000000   -2.00000000000
      6.30968719243    2.10322906414    0.00000000000   -2.00000000000
      6.30968719243   -2.10322906414    0.00000000000   -2.00000000000
      2.10322906414   -6.30968719243    0.00000000000   -2.00000000000
     -2.10322906414   -6.30968719243    0.00000000000   -2.00000000000
     -6.30968719243   -2.10322906414    0.00000000000   -2.00000000000
     -6.30968719243    0.00000000000   -2.10322906414   -2.00000000000
      0.00000000000    6.30968719243   -2.10322906414   -2.00000000000
      6.30968719243    0.00000000000   -2.10322906414   -2.00000000000
      0.00000000000   -6.30968719243   -2.10322906414   -2.00000000000
     -2.10322906414    0.00000000000   -6.30968719243   -2.00000000000
      0.00000000000    2.10322906414   -6.30968719243   -2.00000000000
      2.10322906414    0.00000000000   -6.30968719243   -2.00000000000
      0.00000000000   -2.10322906414   -6.30968719243   -2.00000000000
     -2.10322906414    2.10322906414    6.30968719243    2.00000000000
      2.10322906414    2.10322906414    6.30968719243    2.00000000000
      2.10322906414   -2.10322906414    6.30968719243    2.00000000000
     -2.10322906414   -2.10322906414    6.30968719243    2.00000000000
     -6.30968719243    2.10322906414    2.10322906414    2.00000000000
     -2.10322906414    6.30968719243    2.10322906414    2.00000000000
      2.10322906414    6.30968719243    2.10322906414    2.00000000000
      6.30968719243    2.10322906414    2.10322906414    2.00000000000
      6.30968719243   -2.10322906414    2.10322906414    2.00000000000
      2.10322906414   -6.30968719243    2.10322906414    2.00000000000
     -2.10322906414   -6.30968719243    2.10322906414    2.00000000000
     -6.30968719243   -2.10322906414    2.10322906414    2.00000000000
     -6.30968719243    2.10322906414   -2.10322906414    2.00000000000
     -2.10322906414    6.30968719243   -2.10322906414    2.00000000000
      2.10322906414    6.30968719243   -2.10322906414    2.00000000000
      6.30968719243    2.10322906414   -2.10322906414    2.00000000000
      6.30968719243   -2.10322906414   -2.10322906414    2.00000000000
      2.10322906414   -6.30968719243   -2.10322906414    2.00000000000
     -2.10322906414   -6.30968719243   -2.10322906414    2.00000000000
     -6.30968719243   -2.10322906414   -2.10322906414    2.00000000000
     -2.10322906414    2.10322906414   -6.30968719243    2.00000000000
      2.10322906414    2.10322906414   -6.30968719243    2.00000000000
      2.10322906414   -2.10322906414   -6.30968719243    2.00000000000
     -2.10322906414   -2.10322906414   -6.30968719243    2.00000000000
     -4.20645812828    4.20645812828    4.20645812828   -2.00000000000
      4.20645812828    4.20645812828    4.20645812828   -2.00000000000
      4.20645812828   -4.20645812828    4.20645812828   -2.00000000000
     -4.20645812828   -4.20645812828    4.20645812828   -2.00000000000
     -4.20645812828    4.20645812828   -4.20645812828   -2.00000000000
      4.20645812828    4.20645812828   -4.20645812828   -2.00000000000
      4.20645812828   -4.20645812828   -4.20645812828   -2.00000000000
     -4.20645812828   -4.20645812828   -4.20645812828   -2.00000000000
     -4.20645812828    0.00000000000    6.30968719243    2.00000000000
      0.00000000000    4.20645812828    6.30968719243    2.00000000000
      4.20645812828    0.00000000000    6.30968719243    2.00000000000
      0.00000000000   -4.20645812828    6.30968719243    2.00000000000
     -6.30968719243    0.00000000000    4.20645812828    2.00000000000
      0.00000000000    6.30968719243    4.20645812828    2.00000000000
      6.30968719243    0.00000000000    4.20645812828    2.00000000000
      0.00000000000   -6.30968719243    4.20645812828    2.00000000000
     -6.30968719243    4.20645812828    0.00000000000    2.00000000000
     -4.20645812828    6.30968719243    0.00000000000    2.00000000000
      4.20645812828    6.30968719243    0.00000000000    2.00000000000
      6.30968719243    4.20645812828    0.00000000000    2.00000000000
      6.30968719243   -4.20645812828    0.00000000000    2.00000000000
      4.20645812828   -6.30968719243    0.00000000000    2.00000000000
     -4.20645812828   -6.30968719243    0.00000000000    2.00000000000
     -6.30968719243   -4.20645812828    0.00000000000    2.00000000000
     -6.30968719243    0.00000000000   -4.20645812828    2.00000000000
      0.00000000000    6.30968719243   -4.20645812828    2.00000000000
      6.30968719243    0.00000000000   -4.20645812828    2.00000000000
      0.00000000000   -6.30968719243   -4.20645812828    2.00000000000
     -4.20645812828    0.00000000000   -6.30968719243    2.00000000000
      0.00000000000    4.20645812828   -6.30968719243    2.00000000000
      4.20645812828    0.00000000000   -6.30968719243    2.00000000000
      0.00000000000   -4.20645812828   -6.30968719243    2.00000000000
     -4.20645812828    2.10322906414    6.30968719243   -2.00000000000
     -2.10322906414    4.20645812828    6.30968719243   -2.00000000000
      2.10322906414    4.20645812828    6.30968719243   -2.00000000000
      4.20645812828    2.10322906414    6.30968719243   -2.00000000000
      4.20645812828   -2.10322906414    6.30968719243   -2.00000000000
      2.10322906414   -4.20645812828    6.30968719243   -2.00000000000
     -2.10322906414   -4.20645812828    6.30968719243   -2.00000000000
     -4.20645812828   -2.10322906414    6.30968719243   -2.00000000000
     -6.30968719243    2.10322906414    4.20645812828   -2.00000000000
     -2.10322906414    6.30968719243    4.20645812828   -2.00000000000
      2.10322906414    6.30968719243    4.20645812828   -2.00000000000
      6.30968719243    2.10322906414    4.20645812828   -2.00000000000
      6.30968719243   -2.10322906414    4.20645812828   -2.00000000000
      2.10322906414   -6.30968719243    4.20645812828   -2.00000000000
     -2.10322906414   -6.30968719243    4.20645812828   -2.00000000000
     -6.30968719243   -2.10322906414    4.20645812828   -2.00000000000
     -6.30968719243    4.20645812828    2.10322906414   -2.00000000000
     -4.20645812828    6.30968719243    2.10322906414   -2.00000000000
      4.20645812828    6.30968719243    2.10322906414   -2.00000000000
      6.30968719243    4.20645812828    2.10322906414   -2.00000000000
      6.30968719243   -4.20645812828    2.10322906414   -2.00000000000
      4.20645812828   -6.30968719243    2.10322906414   -2.00000000000
     -4.20645812828   -6.30968719243    2.10322906414   -2.00000000000
     -6.30968719243   -4.20645812828    2.10322906414   -2.00000000000
     -6.30968719243    4.20645812828   -2.10322906414   -2.00000000000
     -4.20645812828    6.30968719243   -2.10322906414   -2.00000000000
      4.20645812828    6.30968719243   -2.10322906414   -2.00000000000
      6.30968719243    4.20645812828   -2.10322906414   -2.00000000000
      6.30968719243   -4.20645812828   -2.10322906414   -2.00000000000
      4.20645812828   -6.30968719243   -2.10322906414   -2.00000000000
     -4.20645812828   -6.30968719243   -2.10322906414   -2.00000000000
     -6.30968719243   -4.20645812828   -2.10322906414   -2.00000000000
     -6.30968719243    2.10322906414   -4.20645812828   -2.00000000000
     -2.10322906414    6.30968719243   -4.20645812828   -2.00000000000
      2.10322906414    6.30968719243   -4.20645812828   -2.00000000000
      6.30968719243    2.10322906414   -4.20645812828   -2.00000000000
      6.30968719243   -2.10322906414   -4.20645812828   -2.00000000000
      2.10322906414   -6.30968719243   -4.20645812828   -2.00000000000
     -2.10322906414   -6.30968719243   -4.20645812828   -2.00000000000
     -6.30968719243   -2.10322906414   -4.20645812828   -2.00000000000
     -4.20645812828    2.10322906414   -6.30968719243   -2.00000000000
     -2.10322906414    4.20645812828   -6.30968719243   -2.00000000000
      2.10322906414    4.20645812828   -6.30968719243   -2.00000000000
      4.20645812828    2.10322906414   -6.30968719243   -2.00000000000
      4.20645812828   -2.10322906414   -6.30968719243   -2.00000000000
      2.10322906414   -4.20645812828   -6.30968719243   -2.00000000000
     -2.10322906414   -4.20645812828   -6.30968719243   -2.00000000000
     -4.20645812828   -2.10322906414   -6.30968719243   -2.00000000000
      0.00000000000    0.00000000000    8.41291625657   -2.00000000000
     -8.41291625657    0.00000000000    0.00000000000   -2.00000000000
      0.00000000000    8.41291625657    0.00000000000   -2.00000000000
      8.41291625657    0.00000000000    0.00000000000   -2.00000000000
      0.00000000000   -8.41291625657    0.00000000000   -2.00000000000
      0.00000000000    0.00000000000   -8.41291625657   -2.00000000000
     -2.10322906414    0.00000000000    8.41291625657    2.00000000000
      0.00000000000    2.10322906414    8.41291625657    2.00000000000
      2.10322906414    0.00000000000    8.41291625657    2.00000000000
      0.00000000000   -2.10322906414    8.41291625657    2.00000000000
     -4.20645812828    4.20645812828    6.30968719243    2.00000000000
      4.20645812828    4.20645812828    6.30968719243    2.00000000000
      4.20645812828   -4.20645812828    6.30968719243    2.00000000000
     -4.20645812828   -4.20645812828    6.30968719243    2.00000000000
     -6.30968719243    4.20645812828    4.20645812828    2.00000000000
     -4.20645812828    6.30968719243    4.20645812828    2.00000000000
      4.20645812828    6.30968719243    4.20645812828    2.00000000000
      6.30968719243    4.20645812828    4.20645812828    2.00000000000
      6.30968719243   -4.20645812828    4.20645812828    2.00000000000
      4.20645812828   -6.30968719243    4.20645812828    2.00000000000
     -4.20645812828   -6.30968719243    4.20645812828    2.00000000000
     -6.30968719243   -4.20645812828    4.20645812828    2.00000000000
     -8.41291625657    0.00000000000    2.10322906414    2.00000000000
      0.00000000000    8.41291625657    2.10322906414    2.00000000000
      8.41291625657    0.00000000000    2.10322906414    2.00000000000
      0.00000000000   -8.41291625657    2.10322906414    2.00000000000
     -8.41291625657    2.10322906414    0.00000000000    2.00000000000
     -2.10322906414    8.41291625657    0.00000000000    2.00000000000
      2.10322906414    8.41291625657    0.00000000000    2.00000000000
      8.41291625657    2.10322906414    0.00000000000    2.00000000000
      8.41291625657   -2.10322906414    0.00000000000    2.00000000000
      2.10322906414   -8.41291625657    0.00000000000    2.00000000000
     -2.10322906414   -8.41291625657    0.00000000000    2.00000000000
     -8.41291625657   -2.10322906414    0.00000000000    2.00000000000
     -8.41291625657    0.00000000000   -2.10322906414    2.00000000000
      0.00000000000    8.41291625657   -2.10322906414    2.00000000000
      8.41291625657    0.00000000000   -2.10322906414    2.00000000000
      0.00000000000   -8.41291625657   -2.10322906414    2.00000000000
     -6.30968719243    4.20645812828   -4.20645812828    2.00000000000
     -4.20645812828    6.30968719243   -4.20645812828    2.00000000000
      4.20645812828    6.30968719243   -4.20645812828    2.00000000000
      6.30968719243    4.20645812828   -4.20645812828    2.00000000000
      6.30968719243   -4.20645812828   -4.20645812828    2.00000000000
      4.20645812828   -6.30968719243   -4.20645812828    2.00000000000
     -4.20645812828   -6.30968719243   -4.20645812828    2.00000000000
     -6.30968719243   -4.20645812828   -4.20645812828    2.00000000000
     -4.20645812828    4.20645812828   -6.30968719243    2.00000000000
      4.20645812828    4.20645812828   -6.30968719243    2.00000000000
      4.20645812828   -4.20645812828   -6.30968719243    2.00000000000
     -4.20645812828   -4.20645812828   -6.30968719243    2.00000000000
     -2.10322906414    0.00000000000   -8.41291625657    2.00000000000
      0.00000000000    2.10322906414   -8.41291625657    2.00000000000
      2.10322906414    0.00000000000   -8.41291625657    2.00000000000
      0.00000000000   -2.10322906414   -8.41291625657    2.00000000000
     -2.10322906414    2.10322906414    8.41291625657   -2.00000000000
      2.10322906414    2.10322906414    8.41291625657   -2.00000000000
      2.10322906414   -2.10322906414    8.41291625657   -2.00000000000
     -2.10322906414   -2.10322906414    8.41291625657   -2.00000000000
     -6.30968719243    0.00000000000    6.30968719243   -2.00000000000
      0.00000000000    6.30968719243    6.30968719243   -2.00000000000
      6.30968719243    0.00000000000    6.30968719243   -2.00000000000
      0.00000000000   -6.30968719243    6.30968719243   -2.00000000000
     -8.41291625657    2.10322906414    2.10322906414   -2.00000000000
     -2.10322906414    8.41291625657    2.10322906414   -2.00000000000
      2.10322906414    8.41291625657    2.10322906414   -2.00000000000
      8.41291625657    2.10322906414    2.10322906414   -2.00000000000
      8.41291625657   -2.10322906414    2.10322906414   -2.00000000000
      2.10322906414   -8.41291625657    2.10322906414   -2.00000000000
     -2.10322906414   -8.41291625657    2.10322906414   -2.00000000000
     -8.41291625657   -2.10322906414    2.10322906414   -2.00000000000
     -6.30968719243    6.30968719243    0.00000000000   -2.00000000000
      6.30968719243    6.30968719243    0.00000000000   -2.00000000000
      6.30968719243   -6.30968719243    0.00000000000   -2.00000000000
     -6.30968719243   -6.30968719243    0.00000000000   -2.00000000000
     -8.41291625657    2.10322906414   -2.10322906414   -2.00000000000
     -2.10322906414    8.41291625657   -2.10322906414   -2.00000000000
      2.10322906414    8.41291625657   -2.10322906414   -2.00000000000
      8.41291625657    2.10322906414   -2.10322906414   -2.00000000000
      8.41291625657   -2.10322906414   -2.10322906414   -2.00000000000
      2.10322906414   -8.41291625657   -2.10322906414   -2.00000000000
     -2.10322906414   -8.41291625657   -2.10322906414   -2.00000000000
     -8.41291625657   -2.10322906414   -2.10322906414   -2.00000000000
     -6.30968719243    0.00000000000   -6.30968719243   -2.00000000000
      0.00000000000    6.30968719243   -6.30968719243   -2.00000000000
      6.30968719243    0.00000000000   -6.30968719243   -2.00000000000
      0.00000000000   -6.30968719243   -6.30968719243   -2.00000000000
     -2.10322906414    2.10322906414   -8.41291625657   -2.00000000000
      2.10322906414    2.10322906414   -8.41291625657   -2.00000000000
      2.10322906414   -2.10322906414   -8.41291625657   -2.00000000000
     -2.10322906414   -2.10322906414   -8.41291625657   -2.00000000000
     -6.30968719243    2.10322906414    6.30968719243    2.00000000000
     -2.10322906414    6.30968719243    6.30968719243    2.00000000000
      2.10322906414    6.30968719243    6.30968719243    2.00000000000
      6.30968719243    2.10322906414    6.30968719243    2.00000000000
      6.30968719243   -2.10322906414    6.30968719243    2.00000000000
      2.10322906414   -6.30968719243    6.30968719243    2.00000000000
     -2.10322906414   -6.30968719243    6.30968719243    2.00000000000
     -6.30968719243   -2.10322906414    6.30968719243    2.00000000000
     -6.30968719243    6.30968719243    2.10322906414    2.00000000000
      6.30968719243    6.30968719243    2.10322906414    2.00000000000
      6.30968719243   -6.30968719243    2.10322906414    2.00000000000
     -6.30968719243   -6.30968719243    2.10322906414    2.00000000000
     -6.30968719243    6.30968719243   -2.10322906414    2.00000000000
      6.30968719243    6.30968719243   -2.10322906414    2.00000000000
      6.30968719243   -6.30968719243   -2.10322906414    2.00000000000
     -6.30968719243   -6.30968719243   -2.10322906414    2.00000000000
     -6.30968719243    2.10322906414   -6.30968719243    2.00000000000
     -2.10322906414    6.30968719243   -6.30968719243    2.00000000000
      2.10322906414    6.30968719243   -6.30968719243    2.00000000000
      6.30968719243    2.10322906414   -6.30968719243    2.00000000000
      6.30968719243   -2.10322906414   -6.30968719243    2.00000000000
      2.10322906414   -6.30968719243   -6.30968719243    2.00000000000
     -2.10322906414   -6.30968719243   -6.30968719243    2.00000000000
     -6.30968719243   -2.10322906414   -6.30968719243    2.00000000000
     -4.20645812828    0.00000000000    8.41291625657   -2.00000000000
      0.00000000000    4.20645812828    8.41291625657   -2.00000000000
      4.20645812828    0.00000000000    8.41291625657   -2.00000000000
      0.00000000000   -4.20645812828    8.41291625657   -2.00000000000
     -8.41291625657    0.00000000000    4.20645812828   -2.00000000000
      0.00000000000    8.41291625657    4.20645812828   -2.00000000000
      8.41291625657    0.00000000000    4.20645812828   -2.00000000000
      0.00000000000   -8.41291625657    4.20645812828   -2.00000000000
     -8.41291625657    4.20645812828    0.00000000000   -2.00000000000
     -4.20645812828    8.41291625657    0.00000000000   -2.00000000000
      4.20645812828    8.41291625657    0.00000000000   -2.00000000000
      8.41291625657    4.20645812828    0.00000000000   -2.00000000000
      8.41291625657   -4.20645812828    0.00000000000   -2.00000000000
      4.20645812828   -8.41291625657    0.00000000000   -2.00000000000
     -4.20645812828   -8.41291625657    0.00000000000   -2.00000000000
     -8.41291625657   -4.20645812828    0.00000000000   -2.00000000000
     -8.41291625657    0.00000000000   -4.20645812828   -2.00000000000
      0.00000000000    8.41291625657   -4.20645812828   -2.00000000000
      8.41291625657    0.00000000000   -4.20645812828   -2.00000000000
      0.00000000000   -8.41291625657   -4.20645812828   -2.00000000000
     -4.20645812828    0.00000000000   -8.41291625657   -2.00000000000
      0.00000000000    4.20645812828   -8.41291625657   -2.00000000000
      4.20645812828    0.00000000000   -8.41291625657   -2.00000000000
      0.00000000000   -4.20645812828   -8.41291625657   -2.00000000000
     -4.20645812828    2.10322906414    8.41291625657    2.00000000000
     -2.10322906414    4.20645812828    8.41291625657    2.00000000000
      2.10322906414    4.20645812828    8.41291625657    2.00000000000
      4.20645812828    2.10322906414    8.41291625657    2.00000000000
      4.20645812828   -2.10322906414    8.41291625657    2.00000000000
      2.10322906414   -4.20645812828    8.41291625657    2.00000000000
     -2.10322906414   -4.20645812828    8.41291625657    2.00000000000
     -4.20645812828   -2.10322906414    8.41291625657    2.00000000000
     -8.41291625657    2.10322906414    4.20645812828    2.00000000000
     -2.10322906414    8.41291625657    4.20645812828    2.00000000000
      2.10322906414    8.41291625657    4.20645812828    2.00000000000
      8.41291625657    2.10322906414    4.20645812828    2.00000000000
      8.41291625657   -2.10322906414    4.20645812828    2.00000000000
      2.10322906414   -8.41291625657    4.20645812828    2.00000000000
     -2.10322906414   -8.41291625657    4.20645812828    2.00000000000
     -8.41291625657   -2.10322906414    4.20645812828    2.00000000000
     -8.41291625657    4.20645812828    2.10322906414    2.00000000000
     -4.20645812828    8.41291625657    2.10322906414    2.00000000000
      4.20645812828    8.41291625657    2.10322906414    2.00000000000
      8.41291625657    4.20645812828    2.10322906414    2.00000000000
      8.41291625657   -4.20645812828    2.10322906414    2.00000000000
      4.20645812828   -8.41291625657    2.10322906414    2.00000000000
     -4.20645812828   -8.41291625657    2.10322906414    2.00000000000
     -8.41291625657   -4.20645812828    2.10322906414    2.00000000000
     -8.41291625657    4.20645812828   -2.10322906414    2.00000000000
     -4.20645812828    8.41291625657   -2.10322906414    2.00000000000
      4.20645812828    8.41291625657   -2.10322906414    2.00000000000
      8.41291625657    4.20645812828   -2.10322906414    2.00000000000
      8.41291625657   -4.20645812828   -2.10322906414    2.00000000000
      4.20645812828   -8.41291625657   -2.10322906414    2.00000000000
     -4.20645812828   -8.41291625657   -2.10322906414    2.00000000000
     -8.41291625657   -4.20645812828   -2.10322906414    2.00000000000
     -8.41291625657    2.10322906414   -4.20645812828    2.00000000000
     -2.10322906414    8.41291625657   -4.20645812828    2.00000000000
      2.10322906414    8.41291625657   -4.20645812828    2.00000000000
      8.41291625657    2.10322906414   -4.20645812828    2.00000000000
      8.41291625657   -2.10322906414   -4.20645812828    2.00000000000
      2.10322906414   -8.41291625657   -4.20645812828    2.00000000000
     -2.10322906414   -8.41291625657   -4.20645812828    2.00000000000
     -8.41291625657   -2.10322906414   -4.20645812828    2.00000000000
     -4.20645812828    2.10322906414   -8.41291625657    2.00000000000
     -2.10322906414    4.20645812828   -8.41291625657    2.00000000000
      2.10322906414    4.20645812828   -8.41291625657    2.00000000000
      4.20645812828    2.10322906414   -8.41291625657    2.00000000000
      4.20645812828   -2.10322906414   -8.41291625657    2.00000000000
      2.10322906414   -4.20645812828   -8.41291625657    2.00000000000
     -2.10322906414   -4.20645812828   -8.41291625657    2.00000000000
     -4.20645812828   -2.10322906414   -8.41291625657    2.00000000000
      0.00000000000    0.00000000000   10.51614532071    2.00000000000
    -10.51614532071    0.00000000000    0.00000000000    2.00000000000
      0.00000000000   10.51614532071    0.00000000000    2.00000000000
     10.51614532071    0.00000000000    0.00000000000    2.00000000000
      0.00000000000  -10.51614532071    0.00000000000    2.00000000000
      0.00000000000    0.00000000000  -10.51614532071    2.00000000000
     -2.10322906414    0.00000000000   10.51614532071   -2.00000000000
      0.00000000000    2.10322906414   10.51614532071   -2.00000000000
      2.10322906414    0.00000000000   10.51614532071   -2.00000000000
      0.00000000000   -2.10322906414   10.51614532071   -2.00000000000
    -10.51614532071    0.00000000000    2.10322906414   -2.00000000000
      0.00000000000   10.51614532071    2.10322906414   -2.00000000000
     10.51614532071    0.00000000000    2.10322906414   -2.00000000000
      0.00000000000  -10.51614532071    2.10322906414   -2.00000000000
    -10.51614532071    2.10322906414    0.00000000000   -2.00000000000
     -2.10322906414   10.51614532071    0.00000000000   -2.00000000000
      2.10322906414   10.51614532071    0.00000000000   -2.00000000000
     10.51614532071    2.10322906414    0.00000000000   -2.00000000000
     10.51614532071   -2.10322906414    0.00000000000   -2.00000000000
      2.10322906414  -10.51614532071    0.00000000000   -2.00000000000
     -2.10322906414  -10.51614532071    0.00000000000   -2.00000000000
    -10.51614532071   -2.10322906414    0.00000000000   -2.00000000000
    -10.51614532071    0.00000000000   -2.10322906414   -2.00000000000
      0.00000000000   10.51614532071   -2.10322906414   -2.00000000000
     10.51614532071    0.00000000000   -2.10322906414   -2.00000000000
      0.00000000000  -10.51614532071   -2.10322906414   -2.00000000000
     -2.10322906414    0.00000000000  -10.51614532071   -2.00000000000
      0.00000000000    2.10322906414  -10.51614532071   -2.00000000000
      2.10322906414    0.00000000000  -10.51614532071   -2.00000000000
      0.00000000000   -2.10322906414  -10.51614532071   -2.00000000000
     -2.10322906414    2.10322906414   10.51614532071    2.00000000000
      2.10322906414    2.10322906414   10.51614532071    2.00000000000
      2.10322906414   -2.10322906414   10.51614532071    2.00000000000
     -2.10322906414   -2.10322906414   10.51614532071    2.00000000000
    -10.51614532071    2.10322906414    2.10322906414    2.00000000000
     -2.10322906414   10.51614532071    2.10322906414    2.00000000000
      2.10322906414   10.51614532071    2.10322906414    2.00000000000
     10.51614532071    2.10322906414    2.10322906414    2.00000000000
     10.51614532071   -2.10322906414    2.10322906414    2.00000000000
      2.10322906414  -10.51614532071    2.10322906414    2.00000000000
     -2.10322906414  -10.51614532071    2.10322906414    2.00000000000
    -10.51614532071   -2.10322906414    2.10322906414    2.00000000000
    -10.51614532071    2.10322906414   -2.10322906414    2.00000000000
     -2.10322906414   10.51614532071   -2.10322906414    2.00000000000
      2.10322906414   10.51614532071   -2.10322906414    2.00000000000
     10.51614532071    2.10322906414   -2.10322906414    2.00000000000
     10.51614532071   -2.10322906414   -2.10322906414    2.00000000000
      2.10322906414  -10.51614532071   -2.10322906414    2.00000000000
     -2.10322906414  -10.51614532071   -2.10322906414    2.00000000000
    -10.51614532071   -2.10322906414   -2.10322906414    2.00000000000
     -2.10322906414    2.10322906414  -10.51614532071    2.00000000000
      2.10322906414    2.10322906414  -10.51614532071    2.00000000000
      2.10322906414   -2.10322906414  -10.51614532071    2.00000000000
     -2.10322906414   -2.10322906414  -10.51614532071    2.00000000000
     -6.30968719243    4.20645812828    6.30968719243   -2.00000000000
     -4.20645812828    6.30968719243    6.30968719243   -2.00000000000
      4.20645812828    6.30968719243    6.30968719243   -2.00000000000
      6.30968719243    4.20645812828    6.30968719243   -2.00000000000
      6.30968719243   -4.20645812828    6.30968719243   -2.00000000000
      4.20645812828   -6.30968719243    6.30968719243   -2.00000000000
     -4.20645812828   -6.30968719243    6.30968719243   -2.00000000000
     -6.30968719243   -4.20645812828    6.30968719243   -2.00000000000
     -6.30968719243    6.30968719243    4.20645812828   -2.00000000000
      6.30968719243    6.30968719243    4.20645812828   -2.00000000000
      6.30968719243   -6.30968719243    4.20645812828   -2.00000000000
     -6.30968719243   -6.30968719243    4.20645812828   -2.00000000000
     -6.30968719243    6.30968719243   -4.20645812828   -2.00000000000
      6.30968719243    6.30968719243   -4.20645812828   -2.00000000000
      6.30968719243   -6.30968719243   -4.20645812828   -2.00000000000
     -6.30968719243   -6.30968719243   -4.20645812828   -2.00000000000
     -6.30968719243    4.20645812828   -6.30968719243   -2.00000000000
     -4.20645812828    6.30968719243   -6.30968719243   -2.00000000000
      4.20645812828    6.30968719243   -6.30968719243   -2.00000000000
      6.30968719243    4.20645812828   -6.30968719243   -2.00000000000
      6.30968719243   -4.20645812828   -6.30968719243   -2.00000000000
      4.20645812828   -6.30968719243   -6.30968719243   -2.00000000000
     -4.20645812828   -6.30968719243   -6.30968719243   -2.00000000000
     -6.30968719243   -4.20645812828   -6.30968719243   -2.00000000000
     -4.20645812828    4.20645812828    8.41291625657   -2.00000000000
      4.20645812828    4.20645812828    8.41291625657   -2.00000000000
      4.20645812828   -4.20645812828    8.41291625657   -2.00000000000
     -4.20645812828   -4.20645812828    8.41291625657   -2.00000000000
     -8.41291625657    4.20645812828    4.20645812828   -2.00000000000
     -4.20645812828    8.41291625657    4.20645812828   -2.00000000000
      4.20645812828    8.41291625657    4.20645812828   -2.00000000000
      8.41291625657    4.20645812828    4.20645812828   -2.00000000000
      8.41291625657   -4.20645812828    4.20645812828   -2.00000000000
      4.20645812828   -8.41291625657    4.20645812828   -2.00000000000
     -4.20645812828   -8.41291625657    4.20645812828   -2.00000000000
     -8.41291625657   -4.20645812828    4.20645812828   -2.00000000000
     -8.41291625657    4.20645812828   -4.20645812828   -2.00000000000
     -4.20645812828    8.41291625657   -4.20645812828   -2.00000000000
      4.20645812828    8.41291625657   -4.20645812828   -2.00000000000
      8.41291625657    4.20645812828   -4.20645812828   -2.00000000000
      8.41291625657   -4.20645812828   -4.20645812828   -2.00000000000
      4.20645812828   -8.41291625657   -4.20645812828   -2.00000000000
     -4.20645812828   -8.41291625657   -4.20645812828   -2.00000000000
     -8.41291625657   -4.20645812828   -4.20645812828   -2.00000000000
     -4.20645812828    4.20645812828   -8.41291625657   -2.00000000000
      4.20645812828    4.20645812828   -8.41291625657   -2.00000000000
      4.20645812828   -4.20645812828   -8.41291625657   -2.00000000000
     -4.20645812828   -4.20645812828   -8.41291625657   -2.00000000000
     -6.30968719243    0.00000000000    8.41291625657    2.00000000000
      0.00000000000    6.30968719243    8.41291625657    2.00000000000
      6.30968719243    0.00000000000    8.41291625657    2.00000000000
      0.00000000000   -6.30968719243    8.41291625657    2.00000000000
     -8.41291625657    0.00000000000    6.30968719243    2.00000000000
      0.00000000000    8.41291625657    6.30968719243    2.00000000000
      8.41291625657    0.00000000000    6.30968719243    2.00000000000
      0.00000000000   -8.41291625657    6.30968719243    2.00000000000
     -8.41291625657    6.30968719243    0.00000000000    2.00000000000
     -6.30968719243    8.41291625657    0.00000000000    2.00000000000
      6.30968719243    8.41291625657    0.00000000000    2.00000000000
      8.41291625657    6.30968719243    0.00000000000    2.00000000000
      8.41291625657   -6.30968719243    0.00000000000    2.00000000000
      6.30968719243   -8.41291625657    0.00000000000    2.00000000000
     -6.30968719243   -8.41291625657    0.00000000000    2.00000000000
     -8.41291625657   -6.30968719243    0.00000000000    2.00000000000
     -8.41291625657    0.00000000000   -6.30968719243    2.00000000000
      0.00000000000    8.41291625657   -6.30968719243    2.00000000000
      8.41291625657    0.00000000000   -6.30968719243    2.00000000000
      0.00000000000   -8.41291625657   -6.30968719243    2.00000000000
     -6.30968719243    0.00000000000   -8.41291625657    2.00000000000
      0.00000000000    6.30968719243   -8.41291625657    2.00000000000
      6.30968719243    0.00000000000   -8.41291625657    2.00000000000
      0.00000000000   -6.30968719243   -8.41291625657    2.00000000000
     -6.30968719243    2.10322906414    8.41291625657   -2.00000000000
     -2.10322906414    6.30968719243    8.41291625657   -2.00000000000
      2.10322906414    6.30968719243    8.41291625657   -2.00000000000
      6.30968719243    2.10322906414    8.41291625657   -2.00000000000
      6.30968719243   -2.10322906414    8.41291625657   -2.00000000000
      2.10322906414   -6.30968719243    8.41291625657   -2.00000000000
     -2.10322906414   -6.30968719243    8.41291625657   -2.00000000000
     -6.30968719243   -2.10322906414    8.41291625657   -2.00000000000
     -8.41291625657    2.10322906414    6.30968719243   -2.00000000000
     -2.10322906414    8.41291625657    6.30968719243   -2.00000000000
      2.10322906414    8.41291625657    6.30968719243   -2.00000000000
      8.41291625657    2.10322906414    6.30968719243   -2.00000000000
      8.41291625657   -2.10322906414    6.30968719243   -2.00000000000
      2.10322906414   -8.41291625657    6.30968719243   -2.00000000000
     -2.10322906414   -8.41291625657    6.30968719243   -2.00000000000
     -8.41291625657   -2.10322906414    6.30968719243   -2.00000000000
     -8.41291625657    6.30968719243    2.10322906414   -2.00000000000
     -6.30968719243    8.41291625657    2.10322906414   -2.00000000000
      6.30968719243    8.41291625657    2.10322906414   -2.00000000000
      8.41291625657    6.30968719243    2.10322906414   -2.00000000000
      8.41291625657   -6.30968719243    2.10322906414   -2.00000000000
      6.30968719243   -8.41291625657    2.10322906414   -2.00000000000
     -6.30968719243   -8.41291625657    2.10322906414   -2.00000000000
     -8.41291625657   -6.30968719243    2.10322906414   -2.00000000000
     -8.41291625657    6.30968719243   -2.10322906414   -2.00000000000
     -6.30968719243    8.41291625657   -2.10322906414   -2.00000000000
      6.30968719243    8.41291625657   -2.10322906414   -2.00000000000
      8.41291625657    6.30968719243   -2.10322906414   -2.00000000000
      8.41291625657   -6.30968719243   -2.10322906414   -2.00000000000
      6.30968719243   -8.41291625657   -2.10322906414   -2.00000000000
     -6.30968719243   -8.41291625657   -2.10322906414   -2.00000000000
     -8.41291625657   -6.30968719243   -2.10322906414   -2.00000000000
     -8.41291625657    2.10322906414   -6.30968719243   -2.00000000000
     -2.10322906414    8.41291625657   -6.30968719243   -2.00000000000
      2.10322906414    8.41291625657   -6.30968719243   -2.00000000000
      8.41291625657    2.10322906414   -6.30968719243   -2.00000000000
      8.41291625657   -2.10322906414   -6.30968719243   -2.00000000000
      2.10322906414   -8.41291625657   -6.30968719243   -2.00000000000
     -2.10322906414   -8.41291625657   -6.30968719243   -2.00000000000
     -8.41291625657   -2.10322906414   -6.30968719243   -2.00000000000
     -6.30968719243    2.10322906414   -8.41291625657   -2.00000000000
     -2.10322906414    6.30968719243   -8.41291625657   -2.00000000000
      2.10322906414    6.30968719243   -8.41291625657   -2.00000000000
      6.30968719243    2.10322906414   -8.41291625657   -2.00000000000
      6.30968719243   -2.10322906414   -8.41291625657   -2.00000000000
      2.10322906414   -6.30968719243   -8.41291625657   -2.00000000000
     -2.10322906414   -6.30968719243   -8.41291625657   -2.00000000000
     -6.30968719243   -2.10322906414   -8.41291625657   -2.00000000000
     -6.30968719243    6.30968719243    6.30968719243    2.00000000000
      6.30968719243    6.30968719243    6.30968719243    2.00000000000
      6.30968719243   -6.30968719243    6.30968719243    2.00000000000
     -6.30968719243   -6.30968719243    6.30968719243    2.00000000000
     -6.30968719243    6.30968719243   -6.30968719243    2.00000000000
      6.30968719243    6.30968719243   -6.30968719243    2.00000000000
      6.30968719243   -6.30968719243   -6.30968719243    2.00000000000
     -6.30968719243   -6.30968719243   -6.30968719243    2.00000000000
     -4.20645812828    0.00000000000   10.51614532071    2.00000000000
      0.00000000000    4.20645812828   10.51614532071    2.00000000000
      4.20645812828    0.00000000000   10.51614532071    2.00000000000
      0.00000000000   -4.20645812828   10.51614532071    2.00000000000
     -6.30968719243    4.20645812828    8.41291625657    2.00000000000
     -4.20645812828    6.30968719243    8.41291625657    2.00000000000
      4.20645812828    6.30968719243    8.41291625657    2.00000000000
      6.30968719243    4.20645812828    8.41291625657    2.00000000000
      6.30968719243   -4.20645812828    8.41291625657    2.00000000000
      4.20645812828   -6.30968719243    8.41291625657    2.00000000000
     -4.20645812828   -6.30968719243    8.41291625657    2.00000000000
     -6.30968719243   -4.20645812828    8.41291625657    2.00000000000
     -8.41291625657    4.20645812828    6.30968719243    2.00000000000
     -4.20645812828    8.41291625657    6.30968719243    2.00000000000
      4.20645812828    8.41291625657    6.30968719243    2.00000000000
      8.41291625657    4.20645812828    6.30968719243    2.00000000000
      8.41291625657   -4.20645812828    6.30968719243    2.00000000000
      4.20645812828   -8.41291625657    6.30968719243    2.00000000000
     -4.20645812828   -8.41291625657    6.30968719243    2.00000000000
     -8.41291625657   -4.20645812828    6.30968719243    2.00000000000
    -10.51614532071    0.00000000000    4.20645812828    2.00000000000
     -8.41291625657    6.30968719243    4.20645812828    2.00000000000
     -6.30968719243    8.41291625657    4.20645812828    2.00000000000
      0.00000000000   10.51614532071    4.20645812828    2.00000000000
      6.30968719243    8.41291625657    4.20645812828    2.00000000000
      8.41291625657    6.30968719243    4.20645812828    2.00000000000
     10.51614532071    0.00000000000    4.20645812828    2.00000000000
      8.41291625657   -6.30968719243    4.20645812828    2.00000000000
      6.30968719243   -8.41291625657    4.20645812828    2.00000000000
      0.00000000000  -10.51614532071    4.20645812828    2.00000000000
     -6.30968719243   -8.41291625657    4.20645812828    2.00000000000
     -8.41291625657   -6.30968719243    4.20645812828    2.00000000000
    -10.51614532071    4.20645812828    0.00000000000    2.00000000000
     -4.20645812828   10.51614532071    0.00000000000    2.00000000000
      4.20645812828   10.51614532071    0.00000000000    2.00000000000
     10.51614532071    4.20645812828    0.00000000000    2.00000000000
     10.51614532071   -4.20645812828    0.00000000000    2.00000000000
      4.20645812828  -10.51614532071    0.00000000000    2.00000000000
     -4.20645812828  -10.51614532071    0.00000000000    2.00000000000
    -10.51614532071   -4.20645812828    0.00000000000    2.00000000000
    -10.51614532071    0.00000000000   -4.20645812828    2.00000000000
     -8.41291625657    6.30968719243   -4.20645812828    2.00000000000
     -6.30968719243    8.41291625657   -4.20645812828    2.00000000000
      0.00000000000   10.51614532071   -4.20645812828    2.00000000000
      6.30968719243    8.41291625657   -4.20645812828    2.00000000000
      8.41291625657    6.30968719243   -4.20645812828    2.00000000000
     10.51614532071    0.00000000000   -4.20645812828    2.00000000000
      8.41291625657   -6.30968719243   -4.20645812828    2.00000000000
      6.30968719243   -8.41291625657   -4.20645812828    2.00000000000
      0.00000000000  -10.51614532071   -4.20645812828    2.00000000000
     -6.30968719243   -8.41291625657   -4.20645812828    2.00000000000
     -8.41291625657   -6.30968719243   -4.20645812828    2.00000000000
     -8.41291625657    4.20645812828   -6.30968719243    2.00000000000
     -4.20645812828    8.41291625657   -6.30968719243    2.00000000000
      4.20645812828    8.41291625657   -6.30968719243    2.00000000000
      8.41291625657    4.20645812828   -6.30968719243    2.00000000000
      8.41291625657   -4.20645812828   -6.30968719243    2.00000000000
      4.20645812828   -8.41291625657   -6.30968719243    2.00000000000
     -4.20645812828   -8.41291625657   -6.30968719243    2.00000000000
     -8.41291625657   -4.20645812828   -6.30968719243    2.00000000000
     -6.30968719243    4.20645812828   -8.41291625657    2.00000000000
     -4.20645812828    6.30968719243   -8.41291625657    2.00000000000
      4.20645812828    6.30968719243   -8.41291625657    2.00000000000
      6.30968719243    4.20645812828   -8.41291625657    2.00000000000
      6.30968719243   -4.20645812828   -8.41291625657    2.00000000000
      4.20645812828   -6.30968719243   -8.41291625657    2.00000000000
     -4.20645812828   -6.30968719243   -8.41291625657    2.00000000000
     -6.30968719243   -4.20645812828   -8.41291625657    2.00000000000
     -4.20645812828    0.00000000000  -10.51614532071    2.00000000000
      0.00000000000    4.20645812828  -10.51614532071    2.00000000000
      4.20645812828    0.00000000000  -10.51614532071    2.00000000000
      0.00000000000   -4.20645812828  -10.51614532071    2.00000000000
     -4.20645812828    2.10322906414   10.51614532071   -2.00000000000
     -2.10322906414    4.20645812828   10.51614532071   -2.00000000000
      2.10322906414    4.20645812828   10.51614532071   -2.00000000000
      4.20645812828    2.10322906414   10.51614532071   -2.00000000000
      4.20645812828   -2.10322906414   10.51614532071   -2.00000000000
      2.10322906414   -4.20645812828   10.51614532071   -2.00000000000
     -2.10322906414   -4.20645812828   10.51614532071   -2.00000000000
     -4.20645812828   -2.10322906414   10.51614532071   -2.00000000000
    -10.51614532071    2.10322906414    4.20645812828   -2.00000000000
     -2.10322906414   10.51614532071    4.20645812828   -2.00000000000
      2.10322906414   10.51614532071    4.20645812828   -2.00000000000
     10.51614532071    2.10322906414    4.20645812828   -2.00000000000
     10.51614532071   -2.10322906414    4.20645812828   -2.00000000000
      2.10322906414  -10.51614532071    4.20645812828   -2.00000000000
     -2.10322906414  -10.51614532071    4.20645812828   -2.00000000000
    -10.51614532071   -2.10322906414    4.20645812828   -2.00000000000
    -10.51614532071    4.20645812828    2.10322906414   -2.00000000000
     -4.20645812828   10.51614532071    2.10322906414   -2.00000000000
      4.20645812828   10.51614532071    2.10322906414   -2.00000000000
     10.51614532071    4.20645812828    2.10322906414   -2.00000000000
     10.51614532071   -4.20645812828    2.10322906414   -2.00000000000
      4.20645812828  -10.51614532071    2.10322906414   -2.00000000000
     -4.20645812828  -10.51614532071    2.10322906414   -2.00000000000
    -10.51614532071   -4.20645812828    2.10322906414   -2.00000000000
    -10.51614532071    4.20645812828   -2.10322906414   -2.00000000000
     -4.20645812828   10.51614532071   -2.10322906414   -2.00000000000
      4.20645812828   10.51614532071   -2.10322906414   -2.00000000000
     10.51614532071    4.20645812828   -2.10322906414   -2.00000000000
     10.51614532071   -4.20645812828   -2.10322906414   -2.00000000000
      4.20645812828  -10.51614532071   -2.10322906414   -2.00000000000
     -4.20645812828  -10.51614532071   -2.10322906414   -2.00000000000
    -10.51614532071   -4.20645812828   -2.10322906414   -2.00000000000
    -10.51614532071    2.10322906414   -4.20645812828   -2.00000000000
     -2.10322906414   10.51614532071   -4.20645812828   -2.00000000000
      2.10322906414   10.51614532071   -4.20645812828   -2.00000000000
     10.51614532071    2.10322906414   -4.20645812828   -2.00000000000
     10.51614532071   -2.10322906414   -4.20645812828   -2.00000000000
      2.10322906414  -10.51614532071   -4.20645812828   -2.00000000000
     -2.10322906414  -10.51614532071   -4.20645812828   -2.00000000000
    -10.51614532071   -2.10322906414   -4.20645812828   -2.00000000000
     -4.20645812828    2.10322906414  -10.51614532071   -2.00000000000
     -2.10322906414    4.20645812828  -10.51614532071   -2.00000000000
      2.10322906414    4.20645812828  -10.51614532071   -2.00000000000
      4.20645812828    2.10322906414  -10.51614532071   -2.00000000000
      4.20645812828   -2.10322906414  -10.51614532071   -2.00000000000
      2.10322906414   -4.20645812828  -10.51614532071   -2.00000000000
     -2.10322906414   -4.20645812828  -10.51614532071   -2.00000000000
     -4.20645812828   -2.10322906414  -10.51614532071   -2.00000000000
     -8.41291625657    0.00000000000    8.41291625657   -2.00000000000
      0.00000000000    8.41291625657    8.41291625657   -2.00000000000
      8.41291625657    0.00000000000    8.41291625657   -2.00000000000
      0.00000000000   -8.41291625657    8.41291625657   -2.00000000000
     -8.41291625657    8.41291625657    0.00000000000   -2.00000000000
      8.41291625657    8.41291625657    0.00000000000   -2.00000000000
      8.41291625657   -8.41291625657    0.00000000000   -2.00000000000
     -8.41291625657   -8.41291625657    0.00000000000   -2.00000000000
     -8.41291625657    0.00000000000   -8.41291625657   -2.00000000000
      0.00000000000    8.41291625657   -8.41291625657   -2.00000000000
      8.41291625657    0.00000000000   -8.41291625657   -2.00000000000
      0.00000000000   -8.41291625657   -8.41291625657   -2.00000000000
     -4.20645812828    4.20645812828   10.51614532071    2.00000000000
      4.20645812828    4.20645812828   10.51614532071    2.00000000000
      4.20645812828   -4.20645812828   10.51614532071    2.00000000000
[...]
 

 Direct DF-CCSD(T) calculation
 
 Convergence criterion:  1.0E-05
 
 Number of occupied/virtual/auxiliary orbitals:     7    31    83
    134.02 MB is the minimal memory requirement for (T)
    135.35 MB is the minimal memory requirement for CCSD
 
 MP2 correlation energy [au]:        -0.265110395989
 
 LMP2 domain correlation energy contribution [au]:       -0.063996190326
 
 CPU time [min]:   850.035                   Wall time [min]:    11.779
 
 
 Starting CCSD iterations...
 
                     Residual norm       Correlation Energy
 Iteration  1        0.139546717283       -0.262560341843
 Iteration  2        0.029803692731       -0.267877374129
 Iteration  3        0.009599210460       -0.268672985686
 Iteration  4        0.001834127263       -0.268686049654
 Iteration  5        0.000474185380       -0.268715598699
 Iteration  6        0.000079393844       -0.268718529855
 Iteration  7        0.000013099386       -0.268719094802
 
 CCSD iteration has converged in  7 steps.
      138.80 MB memory was utilized by CCSD
 
 T1 diagnostic:      5.222E-03            D1 diagnostic:      1.053E-02
 
 CCSD correlation energy [au]:          -0.064208139659
 
 CPU time [min]:   850.247                   Wall time [min]:    11.782
 
 Calculation of (T) correction...
 
 Laplace threshold, nquadmin:  1.00E-01   2
 Number of quadrature points:    2
 
      134.71 MB memory is utilized for (T)

 0%       25%       50%       75%       100%
 |---------|---------|---------|---------| 
 
 (T) correction [au]:                   -0.001696687997
 CCSD(T) correlation energy [au]:       -0.065904827656
 
 CPU time [min]:   850.484                   Wall time [min]:    11.786
 
 MO:    69
 Number of atoms in domain:      25
 Number of atomic orbitals:     781
 Number of atoms for local DF:   20
 Number of fitting functions:  1616  (80.96%)
 Warning: drop high-lying PAOs                     1
 Number of occupied orbitals:    30
 Number of virtual  orbitals:   581
 Number of Cholesky vectors:      8
 MP2 energy in ED [au]:          -0.067049661866
 Number of occupied LNOs:        16  (53.33%)
 Number of virtual  LNOs:        51   (8.78%)
 avg/min projected vLNO norm    9.9860E-01    9.9260E-01
 Number of Cholesky vectors:      6
 MP2 energy in LIS [au]:         -0.066030227756
 Correction for frozen LNO [au]: -0.001019434110     (1.520%)
 Number of NAFs:                160   (9.90%)
 CPU time [min]:   864.777                   Wall time [min]:    11.982
 

 Direct DF-CCSD(T) calculation
 
 Convergence criterion:  1.0E-05
 
 Number of occupied/virtual/auxiliary orbitals:    16    51   160
    158.89 MB is the minimal memory requirement for (T)
    152.24 MB is the minimal memory requirement for CCSD
 
 MP2 correlation energy [au]:        -0.428932752142
 
 LMP2 domain correlation energy contribution [au]:       -0.066021137370
 
 CPU time [min]:   864.836                   Wall time [min]:    11.983
 
 
 Starting CCSD iterations...
 
                     Residual norm       Correlation Energy
 Iteration  1        0.171872577980       -0.440671530038
 Iteration  2        0.040439828688       -0.452863573990
 Iteration  3        0.011321070548       -0.453442102101
 Iteration  4        0.002482948711       -0.453294031944
 Iteration  5        0.000739177997       -0.453317727203
 Iteration  6        0.000157476132       -0.453326430755
 Iteration  7        0.000036747148       -0.453327277435
 
 CCSD iteration has converged in  7 steps.
      175.57 MB memory was utilized by CCSD
 
 T1 diagnostic:      7.040E-03            D1 diagnostic:      2.195E-02
 
 CCSD correlation energy [au]:          -0.066036764937
 
 CPU time [min]:   865.597                   Wall time [min]:    11.994
 
 Calculation of (T) correction...
 
 Laplace threshold, nquadmin:  1.00E-01   2
 Number of quadrature points:    2
 
      173.71 MB memory is utilized for (T)

 0%       25%       50%       75%       100%
 |---------|---------|---------|---------| 
 
 (T) correction [au]:                   -0.002041847253
 CCSD(T) correlation energy [au]:       -0.068078612190
 
 CPU time [min]:   866.539                   Wall time [min]:    12.008
 
 MO:    70
 Number of atoms in domain:      25
 Number of atomic orbitals:     781
 Number of atoms for local DF:   20
 Number of fitting functions:  1616  (80.96%)
 Warning: drop high-lying PAOs                     1
 Number of occupied orbitals:    30
 Number of virtual  orbitals:   581
 Number of Cholesky vectors:      8
 MP2 energy in ED [au]:          -0.067050605317
 Number of occupied LNOs:        16  (53.33%)
 Number of virtual  LNOs:        51   (8.78%)
 avg/min projected vLNO norm    9.9862E-01    9.9160E-01
 Number of Cholesky vectors:      6
 MP2 energy in LIS [au]:         -0.066028899921
 Correction for frozen LNO [au]: -0.001021705395     (1.524%)
 Number of NAFs:                160   (9.90%)
 CPU time [min]:   880.856                   Wall time [min]:    12.204
 

 Direct DF-CCSD(T) calculation
 
 Convergence criterion:  1.0E-05
 
 Number of occupied/virtual/auxiliary orbitals:    16    51   160
    158.89 MB is the minimal memory requirement for (T)
    152.24 MB is the minimal memory requirement for CCSD
 
 MP2 correlation energy [au]:        -0.429046454706
 
 LMP2 domain correlation energy contribution [au]:       -0.066019812098
 
 CPU time [min]:   880.915                   Wall time [min]:    12.205
 
 
 Starting CCSD iterations...
 
                     Residual norm       Correlation Energy
 Iteration  1        0.171864443889       -0.440778337148
 Iteration  2        0.040435242626       -0.452965325768
 Iteration  3        0.011319755125       -0.453544967940
 Iteration  4        0.002482233881       -0.453397415727
 Iteration  5        0.000738986559       -0.453421165423
 Iteration  6        0.000157355821       -0.453429873056
 Iteration  7        0.000036651278       -0.453430723469
 
 CCSD iteration has converged in  7 steps.
      175.57 MB memory was utilized by CCSD
 
 T1 diagnostic:      7.040E-03            D1 diagnostic:      2.195E-02
 
 CCSD correlation energy [au]:          -0.066035372589
 
 CPU time [min]:   881.725                   Wall time [min]:    12.217
 
 Calculation of (T) correction...
 
 Laplace threshold, nquadmin:  1.00E-01   2
 Number of quadrature points:    2
 
      173.71 MB memory is utilized for (T)

 0%       25%       50%       75%       100%
 |---------|---------|---------|---------| 
 
 (T) correction [au]:                   -0.002041749359
 CCSD(T) correlation energy [au]:       -0.068077121948
 
 CPU time [min]:   882.497                   Wall time [min]:    12.228
 
 MO:    71
 Number of atoms in domain:      25
 Number of atomic orbitals:     781
 Number of atoms for local DF:   19
 Number of fitting functions:  1540  (77.15%)
 Warning: drop high-lying PAOs                     1
 Number of occupied orbitals:    30
 Number of virtual  orbitals:   559
 Number of Cholesky vectors:      8
 MP2 energy in ED [au]:          -0.067049992169
 Number of occupied LNOs:        16  (53.33%)
 Number of virtual  LNOs:        51   (9.12%)
 avg/min projected vLNO norm    9.9832E-01    9.8942E-01
 Number of Cholesky vectors:      6
 MP2 energy in LIS [au]:         -0.066027886323
 Correction for frozen LNO [au]: -0.001022105845     (1.524%)
 Number of NAFs:                160  (10.39%)
 CPU time [min]:   895.828                   Wall time [min]:    12.411
 

 Direct DF-CCSD(T) calculation
 
 Convergence criterion:  1.0E-05
 
 Number of occupied/virtual/auxiliary orbitals:    16    51   160
    158.89 MB is the minimal memory requirement for (T)
    152.24 MB is the minimal memory requirement for CCSD
 
 MP2 correlation energy [au]:        -0.429060990866
 
 LMP2 domain correlation energy contribution [au]:       -0.066018737503
 
 CPU time [min]:   895.886                   Wall time [min]:    12.411
 
 
 Starting CCSD iterations...
 
                     Residual norm       Correlation Energy
 Iteration  1        0.171867012442       -0.440793651622
 Iteration  2        0.040423321567       -0.452967826407
 Iteration  3        0.011314510869       -0.453549592141
 Iteration  4        0.002483541331       -0.453403133732
 Iteration  5        0.000740632818       -0.453427211945
 Iteration  6        0.000157820097       -0.453435956922
 Iteration  7        0.000036902007       -0.453436769781
 
 CCSD iteration has converged in  7 steps.
      175.57 MB memory was utilized by CCSD
 
 T1 diagnostic:      7.041E-03            D1 diagnostic:      2.197E-02
 
 CCSD correlation energy [au]:          -0.066034083500
 
 CPU time [min]:   896.666                   Wall time [min]:    12.423
 
 Calculation of (T) correction...
 
 Laplace threshold, nquadmin:  1.00E-01   2
 Number of quadrature points:    2
 
      173.71 MB memory is utilized for (T)

 0%       25%       50%       75%       100%
 |---------|---------|---------|---------| 
 
 (T) correction [au]:                   -0.002041484072
 CCSD(T) correlation energy [au]:       -0.068075567572
 
 CPU time [min]:   897.638                   Wall time [min]:    12.438
 
 MO:    72
 Number of atoms in domain:      25
 Number of atomic orbitals:     781
 Number of atoms for local DF:   18
 Number of fitting functions:  1464  (73.35%)
 Warning: drop high-lying PAOs                     1
 Number of occupied orbitals:    30
 Number of virtual  orbitals:   534
 Number of Cholesky vectors:      8
 MP2 energy in ED [au]:          -0.067047604411
 Number of occupied LNOs:        16  (53.33%)
 Number of virtual  LNOs:        51   (9.55%)
 avg/min projected vLNO norm    9.9828E-01    9.9268E-01
 Number of Cholesky vectors:      6
 MP2 energy in LIS [au]:         -0.066024850882
 Correction for frozen LNO [au]: -0.001022753529     (1.525%)
 Number of NAFs:                160  (10.93%)
 CPU time [min]:   910.004                   Wall time [min]:    12.607
 

 Direct DF-CCSD(T) calculation
 
 Convergence criterion:  1.0E-05
 
 Number of occupied/virtual/auxiliary orbitals:    16    51   160
    158.89 MB is the minimal memory requirement for (T)
    152.24 MB is the minimal memory requirement for CCSD
 
 MP2 correlation energy [au]:        -0.428955751953
 
 LMP2 domain correlation energy contribution [au]:       -0.066015706196
 
 CPU time [min]:   910.063                   Wall time [min]:    12.607
 
 
 Starting CCSD iterations...
 
                     Residual norm       Correlation Energy
 Iteration  1        0.171830948574       -0.440667042529
 Iteration  2        0.040391578898       -0.452816512784
 Iteration  3        0.011305014061       -0.453401336018
 Iteration  4        0.002485671868       -0.453256360543
 Iteration  5        0.000742410124       -0.453280876722
 Iteration  6        0.000158135268       -0.453289633293
 Iteration  7        0.000037131370       -0.453290406968
 
 CCSD iteration has converged in  7 steps.
      175.57 MB memory was utilized by CCSD
 
 T1 diagnostic:      7.044E-03            D1 diagnostic:      2.202E-02
 
 CCSD correlation energy [au]:          -0.066030815740
 
 CPU time [min]:   910.811                   Wall time [min]:    12.619
 
 Calculation of (T) correction...
 
 Laplace threshold, nquadmin:  1.00E-01   2
 Number of quadrature points:    2
 
      173.71 MB memory is utilized for (T)

 0%       25%       50%       75%       100%
 |---------|---------|---------|---------| 
 
 (T) correction [au]:                   -0.002040377803
 CCSD(T) correlation energy [au]:       -0.068071193543
 
 CPU time [min]:   911.584                   Wall time [min]:    12.630
 
 MO:    73
 Number of atoms in domain:      25
 Number of atomic orbitals:     781
 Number of atoms for local DF:   25
 Number of fitting functions:  1996 (100.00%)
 Warning: drop high-lying PAOs                     1
 Number of occupied orbitals:    73
 Number of virtual  orbitals:   659
 Number of Cholesky vectors:      8
 MP2 energy in ED [au]:          -0.047765573739
 Number of occupied LNOs:        45  (61.64%)
 Number of virtual  LNOs:       145  (22.00%)
 avg/min projected vLNO norm    9.9999E-01    9.9991E-01
 Number of Cholesky vectors:      5
 MP2 energy in LIS [au]:         -0.044845566375
 Correction for frozen LNO [au]: -0.002920007364     (6.113%)
 Number of NAFs:                511  (25.60%)
 CPU time [min]:   961.242                   Wall time [min]:    13.318
 

 Direct DF-CCSD(T) calculation
 
 Convergence criterion:  1.0E-05
 
 Number of occupied/virtual/auxiliary orbitals:    45   145   511
   1111.18 MB is the minimal memory requirement for (T)
    814.88 MB is the minimal memory requirement for CCSD
 
 MP2 correlation energy [au]:        -1.355577865700
 
 LMP2 domain correlation energy contribution [au]:       -0.044825834873
 
 CPU time [min]:   961.807                   Wall time [min]:    13.328
 
 
 Starting CCSD iterations...
 
                     Residual norm       Correlation Energy
 Iteration  1        0.226503872799       -1.376279540386
 Iteration  2        0.063028066449       -1.403524604325
 Iteration  3        0.020704316446       -1.407742247659
 Iteration  4        0.003591541646       -1.407778302187
 Iteration  5        0.001169581746       -1.407716441530
 Iteration  6        0.000317841703       -1.407707008618
 Iteration  7        0.000110405758       -1.407705498022
 Iteration  8        0.000028165050       -1.407706380139
 
 CCSD iteration has converged in  8 steps.
     2463.24 MB memory was utilized by CCSD
 
 T1 diagnostic:      1.155E-02            D1 diagnostic:      2.950E-02
 
 CCSD correlation energy [au]:          -0.050709734685
 
 CPU time [min]:   991.841                   Wall time [min]:    13.787
 
 Calculation of (T) correction...
 
 Laplace threshold, nquadmin:  1.00E-01   2
 Number of quadrature points:    2
 
     2325.37 MB memory is utilized for (T)

 0%       25%       50%       75%       100%
 |---------|---------|---------|---------| 
 
 (T) correction [au]:                   -0.002532057041
 CCSD(T) correlation energy [au]:       -0.053241791727
 
 CPU time [min]:  1031.553                   Wall time [min]:    14.365
 
 **********************************************************************
 Dimensions of the extended domains:    Minimum / Average / Maximum
 
 Number of atoms in domain:                  23      24.6        25
 Number of atomic orbitals:                 719     767.4       781
 Number of fitting functions:              1388    1501.5      1996
 Number of occupied localized MOs:           21      27.3        73
 Number of PAOs:                            489     538.2       659
 Number of occupied LNOs:                     7      12.0        45
 Number of virtual  LNOs:                    31      43.3       145
 Number of NAFs:                             83     127.9       511
 
 **********************************************************************
 Distant (and weak) pair contributions, corrections
 
 Sum of pair energies [au]:                    -0.007072913320    (0.147%)
 Sum of energy corrections [au]:               -0.071791524287    (1.493%)
 Pair energies + LNO corrections [au]:         -0.078864437607
 Sum of LMP2 contributions [au]:               -4.808490854374
 
 **********************************************************************
  Time of manipulations in the EDs:      max CPU/Wall [s]  all CPU/Wall [min]
 
 PD construction & multipole pair E    1675.47    24.07    27.92     0.40
 Construct MO basis of the ED            27.16     0.36    24.28     0.33
 (mu,nu|P) evaluation & trf 2 (ai|P)    907.19    11.99   344.20     4.55
 Evaluate MP2 energy of the ED           81.32     1.07    21.58     0.28
 Transformations to the LNO basis        53.96     0.72    16.54     0.22
 Build W_PQ (Jai or Jpi part)             4.55     0.07     1.93     0.03
 Evaluate MP2 energy of the LIS           1.45     0.02     0.22     0.00
 (mu,nu|P) evaluation & trf 2 J(abQ)   1856.74    26.43   436.96     6.22
 Total of the above for all EDs        2932.37    40.67   845.70    11.62
 
 **********************************************************************
 Maximum memory requirement [MB]:       
 
 PD construction & multipole pair E        162.2
 AO integral evaluation in the EDs        2027.1
 (mu,nu|P) evaluation & trf 2 (aI|P)      5092.8
 Evaluate MP2 energy in the EDs           1983.9
 Transformation to the LNO basis           770.2
 (mu,nu|P) to Jab transformation          2573.6
 Evaluate MP2 energy in the LIS            788.2
 Minimum requirement for LIS CCSD          814.9
 Actually allocated  for LIS CCSD         2463.2
 Minimum requirement for LIS (T)          1111.2
 Actually allocated  for LIS (T)          2325.4
 
 ======================================================================
 ======================================================================
 
 
 
 ======================================================================
 ======================================================================
 
 Final local CC results:
 
 Minimum number of correlated electrons:        14       (  9.6%)
 Maximum number of correlated electrons:        90       ( 61.6%)
 Average number of correlated electrons:        23.9     ( 16.4%)
 Minimum number of correlated orbitals:         38       (  5.2%)
 Maximum number of correlated orbitals:        190       ( 25.9%)
 Average number of correlated orbitals:         55.3     (  7.5%)
 
 CPU time for integral calculations [min]:                  6.513
 Wall time for integral calculations [min]:                 2.473
 
 CPU time for SCF calculation [min]:                       68.918
 Wall time for SCF calculation [min]:                       0.922
 
 CPU time for orbital localization [min]:                   0.453
 Wall time for orbital localization [min]:                  0.015
 
 CPU time for integral transformations [min]:             886.353
 Wall time for integral transformations [min]:             12.198
 
 Reference energy [au]:                                -12206.890611203315
 
 LMP2 correlation energy [au]:                             -4.808490854374
 Total LMP2 energy [au]:                               -12211.699102057688
 
 Total MP2 correction for dropped NAFs [au]:               -0.000668733978
 Total MP2 correction [au]:                                -0.079533171585
 
 CPU time for CCSD calculations [min]:                     69.165
 Total CPU time for CCSD [min]:                          1031.403
 Wall time for CCSD calculations [min]:                     1.060
 Total wall time for CCSD [min]:                           16.668
 
 CCSD correlation energy [au]:                             -4.742190073794
 Total CCSD energy [au]:                               -12211.632801277108
 CCSD correlation energy + 0.5 MP2 corrections [au]:       -4.781956659586
 Total LNO-CCSD energy with MP2 corrections [au]:      -12211.672567862901
 
 CPU time for (T) corrections [min]:                       76.041
 Total CPU time for CCSD(T) [min]:                       1107.444
 Wall time for (T) corrections [min]:                       1.106
 Total wall time for CCSD(T) [min]:                        17.775
 
 Total (T) correlation energy contribution [au]:           -0.139095162038
 Total (T) correlation energy+0.5 MP2 correction [au]:     -0.178861747831
 CCSD(T) correlation energy [au]:                          -4.881285235832
 Total CCSD(T) energy [au]:                            -12211.771896439146
 CCSD(T) correlation energy + MP2 corrections [au]:        -4.960818407417
 Total LNO-CCSD(T) energy with MP2 corrections [au]:   -12211.851429610731
 
 ======================================================================
 ======================================================================
 
 ************************ 2021-11-09 01:00:55 *************************
                      Normal termination of mrcc.
 **********************************************************************
