 **********************************************************************
                          MRCC program system
 **********************************************************************
 
                              Written by
 Mihaly Kallay, Peter R. Nagy, David Mester, Zoltan Rolik, Gyula Samu,
   Jozsef Csontos, Jozsef Csoka, P. Bernat Szabo, Laszlo Gyevi-Nagy,
    Bence Hegely, Istvan Ladjanszki, Lorant Szegedy, Bence Ladoczki,
       Klara Petrov, Mate Farkas, Pal D. Mezei, and Adam Ganyecz
 
        Department of Physical Chemistry and Materials Science
            Budapest University of Technology and Economics
                  Budapest P.O.Box 91, H-1521 Hungary
 
                              www.mrcc.hu
 
                    Release date: February 22, 2020

 ************************ 2021-11-07 12:18:11 *************************
 Executing minp...

 Reading input from MINP...
 
 Input file:
 
calc=LNO-CCSD(T)
scftype=rhf
verbosity=3
mem=470GB
symm=off
unit=angs
scfiguess=small
scfmaxit=1000
scfalg=locfit1

ccmaxit=400
usedisk=0
ccsdalg=dfdirect
ccsdthreads=4
ccsdmkl=thr
ptthreads=4

charge=-18
core=19

basis=special
bse_AVDZ
bse_VDZ
bse_VDZ
bse_VDZ
bse_VDZ
bse_VDZ
bse_AVDZ
bse_AVDZ
bse_AVDZ
bse_AVDZ
bse_AVDZ
bse_AVDZ
bse_AVDZ
bse_AVDZ
bse_AVDZ
bse_AVDZ
bse_AVDZ
bse_AVDZ
bse_AVDZ
nothing
nothing
nothing
nothing
nothing
nothing
nothing
nothing
nothing
nothing
nothing
nothing
nothing
nothing
nothing
nothing
nothing
nothing
nothing
nothing
nothing
nothing
nothing
nothing
nothing
nothing
nothing
nothing
nothing
nothing
nothing
nothing
nothing
nothing
nothing
nothing
nothing
nothing
nothing
nothing
nothing
nothing
nothing
nothing
nothing
nothing
nothing
nothing
nothing
nothing
nothing
nothing
nothing
nothing
nothing
nothing
nothing
nothing
nothing
nothing
nothing
nothing
nothing
nothing
nothing
nothing
nothing
nothing
nothing
nothing
nothing
nothing
nothing
nothing
nothing
nothing
nothing
nothing
nothing
nothing
nothing
nothing
nothing
nothing
nothing
nothing
nothing
nothing
nothing
nothing
nothing
nothing
nothing
nothing
nothing
nothing
nothing
nothing
nothing
nothing
nothing
nothing
nothing
nothing
nothing
nothing
nothing
nothing
nothing
nothing
nothing
nothing
nothing
nothing
nothing
nothing
nothing
nothing
nothing
nothing
nothing
nothing
nothing
nothing
nothing
nothing
nothing
nothing
nothing
nothing
nothing
nothing
nothing
nothing
nothing
nothing
nothing
nothing
nothing
nothing
nothing
nothing
nothing
nothing
nothing
nothing

basis_sm=special
STO-3G
STO-3G
STO-3G
STO-3G
STO-3G
STO-3G
STO-3G
STO-3G
STO-3G
STO-3G
STO-3G
STO-3G
STO-3G
STO-3G
STO-3G
STO-3G
STO-3G
STO-3G
STO-3G
nothing
nothing
nothing
nothing
nothing
nothing
nothing
nothing
nothing
nothing
nothing
nothing
nothing
nothing
nothing
nothing
nothing
nothing
nothing
nothing
nothing
nothing
nothing
nothing
nothing
nothing
nothing
nothing
nothing
nothing
nothing
nothing
nothing
nothing
nothing
nothing
nothing
nothing
nothing
nothing
nothing
nothing
nothing
nothing
nothing
nothing
nothing
nothing
nothing
nothing
nothing
nothing
nothing
nothing
nothing
nothing
nothing
nothing
nothing
nothing
nothing
nothing
nothing
nothing
nothing
nothing
nothing
nothing
nothing
nothing
nothing
nothing
nothing
nothing
nothing
nothing
nothing
nothing
nothing
nothing
nothing
nothing
nothing
nothing
nothing
nothing
nothing
nothing
nothing
nothing
nothing
nothing
nothing
nothing
nothing
nothing
nothing
nothing
nothing
nothing
nothing
nothing
nothing
nothing
nothing
nothing
nothing
nothing
nothing
nothing
nothing
nothing
nothing
nothing
nothing
nothing
nothing
nothing
nothing
nothing
nothing
nothing
nothing
nothing
nothing
nothing
nothing
nothing
nothing
nothing
nothing
nothing
nothing
nothing
nothing
nothing
nothing
nothing
nothing
nothing
nothing
nothing
nothing
nothing
nothing
nothing

dfbasis_scf=special
bse_AVDZ_autoaux
bse_VDZ_autoaux
bse_VDZ_autoaux
bse_VDZ_autoaux
bse_VDZ_autoaux
bse_VDZ_autoaux
bse_AVDZ_autoaux
bse_AVDZ_autoaux
bse_AVDZ_autoaux
bse_AVDZ_autoaux
bse_AVDZ_autoaux
bse_AVDZ_autoaux
bse_AVDZ_autoaux
bse_AVDZ_autoaux
bse_AVDZ_autoaux
bse_AVDZ_autoaux
bse_AVDZ_autoaux
bse_AVDZ_autoaux
bse_AVDZ_autoaux
nothing
nothing
nothing
nothing
nothing
nothing
nothing
nothing
nothing
nothing
nothing
nothing
nothing
nothing
nothing
nothing
nothing
nothing
nothing
nothing
nothing
nothing
nothing
nothing
nothing
nothing
nothing
nothing
nothing
nothing
nothing
nothing
nothing
nothing
nothing
nothing
nothing
nothing
nothing
nothing
nothing
nothing
nothing
nothing
nothing
nothing
nothing
nothing
nothing
nothing
nothing
nothing
nothing
nothing
nothing
nothing
nothing
nothing
nothing
nothing
nothing
nothing
nothing
nothing
nothing
nothing
nothing
nothing
nothing
nothing
nothing
nothing
nothing
nothing
nothing
nothing
nothing
nothing
nothing
nothing
nothing
nothing
nothing
nothing
nothing
nothing
nothing
nothing
nothing
nothing
nothing
nothing
nothing
nothing
nothing
nothing
nothing
nothing
nothing
nothing
nothing
nothing
nothing
nothing
nothing
nothing
nothing
nothing
nothing
nothing
nothing
nothing
nothing
nothing
nothing
nothing
nothing
nothing
nothing
nothing
nothing
nothing
nothing
nothing
nothing
nothing
nothing
nothing
nothing
nothing
nothing
nothing
nothing
nothing
nothing
nothing
nothing
nothing
nothing
nothing
nothing
nothing
nothing
nothing
nothing
nothing

dfbasis_cor=special
bse_AVDZ_autoaux
bse_VDZ_autoaux
bse_VDZ_autoaux
bse_VDZ_autoaux
bse_VDZ_autoaux
bse_VDZ_autoaux
bse_AVDZ_autoaux
bse_AVDZ_autoaux
bse_AVDZ_autoaux
bse_AVDZ_autoaux
bse_AVDZ_autoaux
bse_AVDZ_autoaux
bse_AVDZ_autoaux
bse_AVDZ_autoaux
bse_AVDZ_autoaux
bse_AVDZ_autoaux
bse_AVDZ_autoaux
bse_AVDZ_autoaux
bse_AVDZ_autoaux
nothing
nothing
nothing
nothing
nothing
nothing
nothing
nothing
nothing
nothing
nothing
nothing
nothing
nothing
nothing
nothing
nothing
nothing
nothing
nothing
nothing
nothing
nothing
nothing
nothing
nothing
nothing
nothing
nothing
nothing
nothing
nothing
nothing
nothing
nothing
nothing
nothing
nothing
nothing
nothing
nothing
nothing
nothing
nothing
nothing
nothing
nothing
nothing
nothing
nothing
nothing
nothing
nothing
nothing
nothing
nothing
nothing
nothing
nothing
nothing
nothing
nothing
nothing
nothing
nothing
nothing
nothing
nothing
nothing
nothing
nothing
nothing
nothing
nothing
nothing
nothing
nothing
nothing
nothing
nothing
nothing
nothing
nothing
nothing
nothing
nothing
nothing
nothing
nothing
nothing
nothing
nothing
nothing
nothing
nothing
nothing
nothing
nothing
nothing
nothing
nothing
nothing
nothing
nothing
nothing
nothing
nothing
nothing
nothing
nothing
nothing
nothing
nothing
nothing
nothing
nothing
nothing
nothing
nothing
nothing
nothing
nothing
nothing
nothing
nothing
nothing
nothing
nothing
nothing
nothing
nothing
nothing
nothing
nothing
nothing
nothing
nothing
nothing
nothing
nothing
nothing
nothing
nothing
nothing
nothing
nothing

ecp=special
none
none
none
none
none
none
none
none
none
none
none
none
none
none
none
none
none
none
none
ECP-12
ECP-12
ECP-12
ECP-12
ECP-12
ECP-12
ECP-12
ECP-12
ECP-12
ECP-12
ECP-12
ECP-12
ECP-12
ECP-12
ECP-12
ECP-12
ECP-12
ECP-12
ECP-12
ECP-12
ECP-12
ECP-12
ECP-12
ECP-12
ECP-12
ECP-12
ECP-12
ECP-12
ECP-12
ECP-12
ECP-12
ECP-12
ECP-12
ECP-12
ECP-12
ECP-12
ECP-12
ECP-12
ECP-12
ECP-12
ECP-12
ECP-12
ECP-12
ECP-12
ECP-12
ECP-12
ECP-12
ECP-12
ECP-12
ECP-12
ECP-12
ECP-12
ECP-12
ECP-12
ECP-12
ECP-12
ECP-12
ECP-12
ECP-12
ECP-12
ECP-12
ECP-12
ECP-12
ECP-12
ECP-12
ECP-12
ECP-12
ECP-12
ECP-12
ECP-12
ECP-12
ECP-12
ECP-12
ECP-12
ECP-12
ECP-12
ECP-12
ECP-12
ECP-12
ECP-12
ECP-12
ECP-12
ECP-12
ECP-12
ECP-12
ECP-12
ECP-12
ECP-12
ECP-12
ECP-12
ECP-12
ECP-12
ECP-12
ECP-12
ECP-12
ECP-12
ECP-12
ECP-12
ECP-12
ECP-12
ECP-12
ECP-12
ECP-12
ECP-12
ECP-12
ECP-12
ECP-12
ECP-12
ECP-12
ECP-12
ECP-12
ECP-12
ECP-12
ECP-12
ECP-12
ECP-12
ECP-12
ECP-12
ECP-12
ECP-12
ECP-12
ECP-12
ECP-12
ECP-12
ECP-12
ECP-12
ECP-12
ECP-12
ECP-12
ECP-12
ECP-12
ECP-12
ECP-12
ECP-12
ECP-12
ECP-12
ECP-12
ECP-12
ECP-12
ECP-12
ECP-12
ECP-12
ECP-12
ECP-12
ECP-12
ECP-12

unit=angs
geom=xyz
165
Mg5O14ECP146
O     0.00000000000    0.00000000000    0.00000000000
Mg   -2.10322620878    0.00000373010   -0.04129472389
Mg   -0.00000077520    2.10323371923   -0.04127288263
Mg    2.10323191950    0.00000373010   -0.04129472389
Mg   -0.00000077520   -2.10322440905   -0.04127288263
Mg    0.00000550943    0.00000833428   -2.12731743682
O    -2.10322913797    2.10323249699   -0.00000184672
O     2.10322899032    2.10323249699   -0.00000184672
O     2.10322899032   -2.10322563130   -0.00000184672
O    -2.10322913797   -2.10322563130   -0.00000184672
O    -2.10322637832    0.00000013655   -2.13228003377
O     0.00000097398    2.10323217703   -2.13226748721
O     2.10323174996    0.00000013655   -2.13228003377
O     0.00000097398   -2.10322595126   -2.13226748721
O    -4.20645812828    0.00000000000    0.00000000000
O     0.00000000000    4.20645812828    0.00000000000
O     4.20645812828    0.00000000000    0.00000000000
O     0.00000000000   -4.20645812828    0.00000000000
O     0.00000732117    0.00000897147   -4.23909984007
Mg   -2.10322347462    2.10323704324   -2.12732261718
Mg    2.10323465367    2.10323704324   -2.12732261718
Mg    2.10323465367   -2.10322108505   -2.12732261718
Mg   -2.10322347462   -2.10322108505   -2.12732261718
Mg   -4.20645890349    2.10323371923   -0.04127288263
Mg   -2.10322620878    4.20646185838   -0.04129472389
Mg    2.10323191950    4.20646185838   -0.04129472389
Mg    4.20645735308    2.10323371923   -0.04127288263
Mg    4.20645735308   -2.10322440905   -0.04127288263
Mg    2.10323191950   -4.20645439819   -0.04129472389
Mg   -2.10322620878   -4.20645439819   -0.04129472389
Mg   -4.20645890349   -2.10322440905   -0.04127288263
Mg   -4.20645261886    0.00000833428   -2.12731743682
Mg    0.00000550943    4.20646646256   -2.12731743682
Mg    4.20646363771    0.00000833428   -2.12731743682
Mg    0.00000550943   -4.20644979401   -2.12731743682
Mg   -2.10322174297    0.00000897147   -4.23909984007
Mg    0.00000732117    2.10323803561   -4.23909984007
Mg    2.10323638531    0.00000897147   -4.23909984007
Mg    0.00000732117   -2.10322009268   -4.23909984007
Mg   -6.30968433707    0.00000373010   -0.04129472389
Mg   -0.00000077520    6.30969184751   -0.04127288263
Mg    6.30969004779    0.00000373010   -0.04129472389
Mg   -0.00000077520   -6.30968253734   -0.04127288263
Mg   -4.20645261886    4.20646646256   -2.12731743682
Mg    4.20646363771    4.20646646256   -2.12731743682
Mg    4.20646363771   -4.20644979401   -2.12731743682
Mg   -4.20645261886   -4.20644979401   -2.12731743682
Mg   -4.20645080711    2.10323803561   -4.23909984007
Mg   -2.10322174297    4.20646709975   -4.23909984007
Mg    2.10323638531    4.20646709975   -4.23909984007
Mg    4.20646544946    2.10323803561   -4.23909984007
Mg    4.20646544946   -2.10322009268   -4.23909984007
Mg    2.10323638531   -4.20644915682   -4.23909984007
Mg   -2.10322174297   -4.20644915682   -4.23909984007
Mg   -4.20645080711   -2.10322009268   -4.23909984007
Mg    0.00000732117    0.00000897147   -6.34232890421
Mg   -6.30968160290    2.10323704324   -2.12732261718
Mg   -2.10322347462    6.30969517152   -2.12732261718
Mg    2.10323465367    6.30969517152   -2.12732261718
Mg    6.30969278195    2.10323704324   -2.12732261718
Mg    6.30969278195   -2.10322108505   -2.12732261718
Mg    2.10323465367   -6.30967921333   -2.12732261718
Mg   -2.10322347462   -6.30967921333   -2.12732261718
Mg   -6.30968160290   -2.10322108505   -2.12732261718
Mg   -2.10322174297    2.10323803561   -6.34232890421
Mg    2.10323638531    2.10323803561   -6.34232890421
Mg    2.10323638531   -2.10322009268   -6.34232890421
Mg   -2.10322174297   -2.10322009268   -6.34232890421
Mg   -6.30968433707    4.20646185838   -0.04129472389
Mg   -4.20645890349    6.30969184751   -0.04127288263
Mg    4.20645735308    6.30969184751   -0.04127288263
Mg    6.30969004779    4.20646185838   -0.04129472389
Mg    6.30969004779   -4.20645439819   -0.04129472389
Mg    4.20645735308   -6.30968253734   -0.04127288263
Mg   -4.20645890349   -6.30968253734   -0.04127288263
Mg   -6.30968433707   -4.20645439819   -0.04129472389
Mg   -6.30967987125    0.00000897147   -4.23909984007
Mg    0.00000732117    6.30969616389   -4.23909984007
Mg    6.30969451360    0.00000897147   -4.23909984007
Mg    0.00000732117   -6.30967822096   -4.23909984007
Mg   -4.20645080711    0.00000897147   -6.34232890421
Mg    0.00000732117    4.20646709975   -6.34232890421
Mg    4.20646544946    0.00000897147   -6.34232890421
Mg    0.00000732117   -4.20644915682   -6.34232890421
Mg   -8.41291703177    2.10323371923   -0.04127288263
Mg   -2.10322620878    8.41291998667   -0.04129472389
Mg    2.10323191950    8.41291998667   -0.04129472389
Mg    8.41291548137    2.10323371923   -0.04127288263
Mg    8.41291548137   -2.10322440905   -0.04127288263
Mg    2.10323191950   -8.41291252647   -0.04129472389
Mg   -2.10322620878   -8.41291252647   -0.04129472389
Mg   -8.41291703177   -2.10322440905   -0.04127288263
Mg   -8.41291074714    0.00000833428   -2.12731743682
Mg    0.00000550943    8.41292459085   -2.12731743682
Mg    8.41292176600    0.00000833428   -2.12731743682
Mg    0.00000550943   -8.41290792229   -2.12731743682
Mg   -6.30967987125    4.20646709975   -4.23909984007
Mg   -4.20645080711    6.30969616389   -4.23909984007
Mg    4.20646544946    6.30969616389   -4.23909984007
Mg    6.30969451360    4.20646709975   -4.23909984007
Mg    6.30969451360   -4.20644915682   -4.23909984007
Mg    4.20646544946   -6.30967822096   -4.23909984007
Mg   -4.20645080711   -6.30967822096   -4.23909984007
Mg   -6.30967987125   -4.20644915682   -4.23909984007
Mg   -4.20645080711    4.20646709975   -6.34232890421
Mg    4.20646544946    4.20646709975   -6.34232890421
Mg    4.20646544946   -4.20644915682   -6.34232890421
Mg   -4.20645080711   -4.20644915682   -6.34232890421
Mg   -2.10322174297    0.00000897147   -8.44555796836
Mg    0.00000732117    2.10323803561   -8.44555796836
Mg    2.10323638531    0.00000897147   -8.44555796836
Mg    0.00000732117   -2.10322009268   -8.44555796836
Mg   -6.30968160290    6.30969517152   -2.12732261718
Mg    6.30969278195    6.30969517152   -2.12732261718
Mg    6.30969278195   -6.30967921333   -2.12732261718
Mg   -6.30968160290   -6.30967921333   -2.12732261718
Mg   -6.30967987125    2.10323803561   -6.34232890421
Mg   -2.10322174297    6.30969616389   -6.34232890421
Mg    2.10323638531    6.30969616389   -6.34232890421
Mg    6.30969451360    2.10323803561   -6.34232890421
Mg    6.30969451360   -2.10322009268   -6.34232890421
Mg    2.10323638531   -6.30967822096   -6.34232890421
Mg   -2.10322174297   -6.30967822096   -6.34232890421
Mg   -6.30967987125   -2.10322009268   -6.34232890421
Mg   -8.41291074714    4.20646646256   -2.12731743682
Mg   -4.20645261886    8.41292459085   -2.12731743682
Mg    4.20646363771    8.41292459085   -2.12731743682
Mg    8.41292176600    4.20646646256   -2.12731743682
Mg    8.41292176600   -4.20644979401   -2.12731743682
Mg    4.20646363771   -8.41290792229   -2.12731743682
Mg   -4.20645261886   -8.41290792229   -2.12731743682
Mg   -8.41291074714   -4.20644979401   -2.12731743682
Mg   -8.41290893540    2.10323803561   -4.23909984007
Mg   -2.10322174297    8.41292522803   -4.23909984007
Mg    2.10323638531    8.41292522803   -4.23909984007
Mg    8.41292357774    2.10323803561   -4.23909984007
Mg    8.41292357774   -2.10322009268   -4.23909984007
Mg    2.10323638531   -8.41290728510   -4.23909984007
Mg   -2.10322174297   -8.41290728510   -4.23909984007
Mg   -8.41290893540   -2.10322009268   -4.23909984007
Mg   -4.20645080711    2.10323803561   -8.44555796836
Mg   -2.10322174297    4.20646709975   -8.44555796836
Mg    2.10323638531    4.20646709975   -8.44555796836
Mg    4.20646544946    2.10323803561   -8.44555796836
Mg    4.20646544946   -2.10322009268   -8.44555796836
Mg    2.10323638531   -4.20644915682   -8.44555796836
Mg   -2.10322174297   -4.20644915682   -8.44555796836
Mg   -4.20645080711   -2.10322009268   -8.44555796836
Mg  -10.51614246535    0.00000373010   -0.04129472389
Mg   -0.00000077520   10.51614997580   -0.04127288263
Mg   10.51614817607    0.00000373010   -0.04129472389
Mg   -0.00000077520  -10.51614066562   -0.04127288263
Mg    0.00000732117    0.00000897147  -10.54878703250
Mg  -10.51613973119    2.10323704324   -2.12732261718
Mg   -2.10322347462   10.51615329981   -2.12732261718
Mg    2.10323465367   10.51615329981   -2.12732261718
Mg   10.51615091024    2.10323704324   -2.12732261718
Mg   10.51615091024   -2.10322108505   -2.12732261718
Mg    2.10323465367  -10.51613734162   -2.12732261718
Mg   -2.10322347462  -10.51613734162   -2.12732261718
Mg  -10.51613973119   -2.10322108505   -2.12732261718
Mg   -2.10322174297    2.10323803561  -10.54878703250
Mg    2.10323638531    2.10323803561  -10.54878703250
Mg    2.10323638531   -2.10322009268  -10.54878703250
Mg   -2.10322174297   -2.10322009268  -10.54878703250

qmmm=Amber
pointcharges
10070
     -2.10322347462    2.10323704324   -2.12732261718    2.00000000000
      2.10323465367    2.10323704324   -2.12732261718    2.00000000000
      2.10323465367   -2.10322108505   -2.12732261718    2.00000000000
     -2.10322347462   -2.10322108505   -2.12732261718    2.00000000000
     -4.20645890349    2.10323371923   -0.04127288263    2.00000000000
     -2.10322620878    4.20646185838   -0.04129472389    2.00000000000
      2.10323191950    4.20646185838   -0.04129472389    2.00000000000
      4.20645735308    2.10323371923   -0.04127288263    2.00000000000
      4.20645735308   -2.10322440905   -0.04127288263    2.00000000000
      2.10323191950   -4.20645439819   -0.04129472389    2.00000000000
     -2.10322620878   -4.20645439819   -0.04129472389    2.00000000000
     -4.20645890349   -2.10322440905   -0.04127288263    2.00000000000
     -4.20645261886    0.00000833428   -2.12731743682    2.00000000000
      0.00000550943    4.20646646256   -2.12731743682    2.00000000000
      4.20646363771    0.00000833428   -2.12731743682    2.00000000000
      0.00000550943   -4.20644979401   -2.12731743682    2.00000000000
     -2.10322174297    0.00000897147   -4.23909984007    2.00000000000
      0.00000732117    2.10323803561   -4.23909984007    2.00000000000
      2.10323638531    0.00000897147   -4.23909984007    2.00000000000
      0.00000732117   -2.10322009268   -4.23909984007    2.00000000000
     -4.20645715431    2.10323217703   -2.13226748721   -2.00000000000
     -2.10322637832    4.20645826484   -2.13228003377   -2.00000000000
      2.10323174996    4.20645826484   -2.13228003377   -2.00000000000
      4.20645910226    2.10323217703   -2.13226748721   -2.00000000000
      4.20645910226   -2.10322595126   -2.13226748721   -2.00000000000
      2.10323174996   -4.20645799173   -2.13228003377   -2.00000000000
     -2.10322637832   -4.20645799173   -2.13228003377   -2.00000000000
     -4.20645715431   -2.10322595126   -2.13226748721   -2.00000000000
     -2.10322174297    2.10323803561   -4.23909984007   -2.00000000000
      2.10323638531    2.10323803561   -4.23909984007   -2.00000000000
      2.10323638531   -2.10322009268   -4.23909984007   -2.00000000000
     -2.10322174297   -2.10322009268   -4.23909984007   -2.00000000000
     -4.20645812828    4.20645812828    0.00000000000   -2.00000000000
      4.20645812828    4.20645812828    0.00000000000   -2.00000000000
      4.20645812828   -4.20645812828    0.00000000000   -2.00000000000
     -4.20645812828   -4.20645812828    0.00000000000   -2.00000000000
     -4.20645080711    0.00000897147   -4.23909984007   -2.00000000000
      0.00000732117    4.20646709975   -4.23909984007   -2.00000000000
      4.20646544946    0.00000897147   -4.23909984007   -2.00000000000
      0.00000732117   -4.20644915682   -4.23909984007   -2.00000000000
     -6.30968433707    0.00000373010   -0.04129472389    2.00000000000
     -0.00000077520    6.30969184751   -0.04127288263    2.00000000000
      6.30969004779    0.00000373010   -0.04129472389    2.00000000000
     -0.00000077520   -6.30968253734   -0.04127288263    2.00000000000
     -4.20645261886    4.20646646256   -2.12731743682    2.00000000000
      4.20646363771    4.20646646256   -2.12731743682    2.00000000000
      4.20646363771   -4.20644979401   -2.12731743682    2.00000000000
     -4.20645261886   -4.20644979401   -2.12731743682    2.00000000000
     -4.20645080711    2.10323803561   -4.23909984007    2.00000000000
     -2.10322174297    4.20646709975   -4.23909984007    2.00000000000
      2.10323638531    4.20646709975   -4.23909984007    2.00000000000
      4.20646544946    2.10323803561   -4.23909984007    2.00000000000
      4.20646544946   -2.10322009268   -4.23909984007    2.00000000000
      2.10323638531   -4.20644915682   -4.23909984007    2.00000000000
     -2.10322174297   -4.20644915682   -4.23909984007    2.00000000000
     -4.20645080711   -2.10322009268   -4.23909984007    2.00000000000
      0.00000732117    0.00000897147   -6.34232890421    2.00000000000
     -6.30968726625    2.10323249699   -0.00000184672   -2.00000000000
     -2.10322913797    6.30969062527   -0.00000184672   -2.00000000000
      2.10322899032    6.30969062527   -0.00000184672   -2.00000000000
      6.30968711860    2.10323249699   -0.00000184672   -2.00000000000
      6.30968711860   -2.10322563130   -0.00000184672   -2.00000000000
      2.10322899032   -6.30968375958   -0.00000184672   -2.00000000000
     -2.10322913797   -6.30968375958   -0.00000184672   -2.00000000000
     -6.30968726625   -2.10322563130   -0.00000184672   -2.00000000000
     -6.30968450660    0.00000013655   -2.13228003377   -2.00000000000
      0.00000097398    6.30969030531   -2.13226748721   -2.00000000000
      6.30968987825    0.00000013655   -2.13228003377   -2.00000000000
      0.00000097398   -6.30968407954   -2.13226748721   -2.00000000000
     -2.10322174297    0.00000897147   -6.34232890421   -2.00000000000
      0.00000732117    2.10323803561   -6.34232890421   -2.00000000000
      2.10323638531    0.00000897147   -6.34232890421   -2.00000000000
      0.00000732117   -2.10322009268   -6.34232890421   -2.00000000000
     -6.30968160290    2.10323704324   -2.12732261718    2.00000000000
     -2.10322347462    6.30969517152   -2.12732261718    2.00000000000
      2.10323465367    6.30969517152   -2.12732261718    2.00000000000
      6.30969278195    2.10323704324   -2.12732261718    2.00000000000
      6.30969278195   -2.10322108505   -2.12732261718    2.00000000000
      2.10323465367   -6.30967921333   -2.12732261718    2.00000000000
     -2.10322347462   -6.30967921333   -2.12732261718    2.00000000000
     -6.30968160290   -2.10322108505   -2.12732261718    2.00000000000
     -2.10322174297    2.10323803561   -6.34232890421    2.00000000000
      2.10323638531    2.10323803561   -6.34232890421    2.00000000000
      2.10323638531   -2.10322009268   -6.34232890421    2.00000000000
     -2.10322174297   -2.10322009268   -6.34232890421    2.00000000000
     -4.20645080711    4.20646709975   -4.23909984007   -2.00000000000
      4.20646544946    4.20646709975   -4.23909984007   -2.00000000000
      4.20646544946   -4.20644915682   -4.23909984007   -2.00000000000
     -4.20645080711   -4.20644915682   -4.23909984007   -2.00000000000
     -6.30968433707    4.20646185838   -0.04129472389    2.00000000000
     -4.20645890349    6.30969184751   -0.04127288263    2.00000000000
      4.20645735308    6.30969184751   -0.04127288263    2.00000000000
      6.30969004779    4.20646185838   -0.04129472389    2.00000000000
      6.30969004779   -4.20645439819   -0.04129472389    2.00000000000
      4.20645735308   -6.30968253734   -0.04127288263    2.00000000000
     -4.20645890349   -6.30968253734   -0.04127288263    2.00000000000
     -6.30968433707   -4.20645439819   -0.04129472389    2.00000000000
     -6.30967987125    0.00000897147   -4.23909984007    2.00000000000
      0.00000732117    6.30969616389   -4.23909984007    2.00000000000
      6.30969451360    0.00000897147   -4.23909984007    2.00000000000
      0.00000732117   -6.30967822096   -4.23909984007    2.00000000000
     -4.20645080711    0.00000897147   -6.34232890421    2.00000000000
      0.00000732117    4.20646709975   -6.34232890421    2.00000000000
      4.20646544946    0.00000897147   -6.34232890421    2.00000000000
      0.00000732117   -4.20644915682   -6.34232890421    2.00000000000
     -6.30968450660    4.20645826484   -2.13228003377   -2.00000000000
     -4.20645715431    6.30969030531   -2.13226748721   -2.00000000000
      4.20645910226    6.30969030531   -2.13226748721   -2.00000000000
      6.30968987825    4.20645826484   -2.13228003377   -2.00000000000
      6.30968987825   -4.20645799173   -2.13228003377   -2.00000000000
      4.20645910226   -6.30968407954   -2.13226748721   -2.00000000000
     -4.20645715431   -6.30968407954   -2.13226748721   -2.00000000000
     -6.30968450660   -4.20645799173   -2.13228003377   -2.00000000000
     -6.30967987125    2.10323803561   -4.23909984007   -2.00000000000
     -2.10322174297    6.30969616389   -4.23909984007   -2.00000000000
      2.10323638531    6.30969616389   -4.23909984007   -2.00000000000
      6.30969451360    2.10323803561   -4.23909984007   -2.00000000000
      6.30969451360   -2.10322009268   -4.23909984007   -2.00000000000
      2.10323638531   -6.30967822096   -4.23909984007   -2.00000000000
     -2.10322174297   -6.30967822096   -4.23909984007   -2.00000000000
     -6.30967987125   -2.10322009268   -4.23909984007   -2.00000000000
     -4.20645080711    2.10323803561   -6.34232890421   -2.00000000000
     -2.10322174297    4.20646709975   -6.34232890421   -2.00000000000
      2.10323638531    4.20646709975   -6.34232890421   -2.00000000000
      4.20646544946    2.10323803561   -6.34232890421   -2.00000000000
      4.20646544946   -2.10322009268   -6.34232890421   -2.00000000000
      2.10323638531   -4.20644915682   -6.34232890421   -2.00000000000
     -2.10322174297   -4.20644915682   -6.34232890421   -2.00000000000
     -4.20645080711   -2.10322009268   -6.34232890421   -2.00000000000
     -8.41291625657    0.00000000000    0.00000000000   -2.00000000000
      0.00000000000    8.41291625657    0.00000000000   -2.00000000000
      8.41291625657    0.00000000000    0.00000000000   -2.00000000000
      0.00000000000   -8.41291625657    0.00000000000   -2.00000000000
      0.00000732117    0.00000897147   -8.44555796836   -2.00000000000
     -8.41291703177    2.10323371923   -0.04127288263    2.00000000000
     -2.10322620878    8.41291998667   -0.04129472389    2.00000000000
      2.10323191950    8.41291998667   -0.04129472389    2.00000000000
      8.41291548137    2.10323371923   -0.04127288263    2.00000000000
      8.41291548137   -2.10322440905   -0.04127288263    2.00000000000
      2.10323191950   -8.41291252647   -0.04129472389    2.00000000000
     -2.10322620878   -8.41291252647   -0.04129472389    2.00000000000
     -8.41291703177   -2.10322440905   -0.04127288263    2.00000000000
     -8.41291074714    0.00000833428   -2.12731743682    2.00000000000
      0.00000550943    8.41292459085   -2.12731743682    2.00000000000
      8.41292176600    0.00000833428   -2.12731743682    2.00000000000
      0.00000550943   -8.41290792229   -2.12731743682    2.00000000000
     -6.30967987125    4.20646709975   -4.23909984007    2.00000000000
     -4.20645080711    6.30969616389   -4.23909984007    2.00000000000
      4.20646544946    6.30969616389   -4.23909984007    2.00000000000
      6.30969451360    4.20646709975   -4.23909984007    2.00000000000
      6.30969451360   -4.20644915682   -4.23909984007    2.00000000000
      4.20646544946   -6.30967822096   -4.23909984007    2.00000000000
     -4.20645080711   -6.30967822096   -4.23909984007    2.00000000000
     -6.30967987125   -4.20644915682   -4.23909984007    2.00000000000
     -4.20645080711    4.20646709975   -6.34232890421    2.00000000000
      4.20646544946    4.20646709975   -6.34232890421    2.00000000000
      4.20646544946   -4.20644915682   -6.34232890421    2.00000000000
     -4.20645080711   -4.20644915682   -6.34232890421    2.00000000000
     -2.10322174297    0.00000897147   -8.44555796836    2.00000000000
      0.00000732117    2.10323803561   -8.44555796836    2.00000000000
      2.10323638531    0.00000897147   -8.44555796836    2.00000000000
      0.00000732117   -2.10322009268   -8.44555796836    2.00000000000
     -6.30968726625    6.30969062527   -0.00000184672   -2.00000000000
      6.30968711860    6.30969062527   -0.00000184672   -2.00000000000
      6.30968711860   -6.30968375958   -0.00000184672   -2.00000000000
     -6.30968726625   -6.30968375958   -0.00000184672   -2.00000000000
     -8.41291528259    2.10323217703   -2.13226748721   -2.00000000000
     -2.10322637832    8.41291639312   -2.13228003377   -2.00000000000
      2.10323174996    8.41291639312   -2.13228003377   -2.00000000000
      8.41291723054    2.10323217703   -2.13226748721   -2.00000000000
      8.41291723054   -2.10322595126   -2.13226748721   -2.00000000000
      2.10323174996   -8.41291612001   -2.13228003377   -2.00000000000
     -2.10322637832   -8.41291612001   -2.13228003377   -2.00000000000
     -8.41291528259   -2.10322595126   -2.13226748721   -2.00000000000
     -6.30967987125    0.00000897147   -6.34232890421   -2.00000000000
      0.00000732117    6.30969616389   -6.34232890421   -2.00000000000
      6.30969451360    0.00000897147   -6.34232890421   -2.00000000000
      0.00000732117   -6.30967822096   -6.34232890421   -2.00000000000
     -2.10322174297    2.10323803561   -8.44555796836   -2.00000000000
      2.10323638531    2.10323803561   -8.44555796836   -2.00000000000
      2.10323638531   -2.10322009268   -8.44555796836   -2.00000000000
     -2.10322174297   -2.10322009268   -8.44555796836   -2.00000000000
     -6.30968160290    6.30969517152   -2.12732261718    2.00000000000
      6.30969278195    6.30969517152   -2.12732261718    2.00000000000
      6.30969278195   -6.30967921333   -2.12732261718    2.00000000000
     -6.30968160290   -6.30967921333   -2.12732261718    2.00000000000
     -6.30967987125    2.10323803561   -6.34232890421    2.00000000000
     -2.10322174297    6.30969616389   -6.34232890421    2.00000000000
      2.10323638531    6.30969616389   -6.34232890421    2.00000000000
      6.30969451360    2.10323803561   -6.34232890421    2.00000000000
      6.30969451360   -2.10322009268   -6.34232890421    2.00000000000
      2.10323638531   -6.30967822096   -6.34232890421    2.00000000000
     -2.10322174297   -6.30967822096   -6.34232890421    2.00000000000
     -6.30967987125   -2.10322009268   -6.34232890421    2.00000000000
     -8.41291625657    4.20645812828    0.00000000000   -2.00000000000
     -4.20645812828    8.41291625657    0.00000000000   -2.00000000000
      4.20645812828    8.41291625657    0.00000000000   -2.00000000000
      8.41291625657    4.20645812828    0.00000000000   -2.00000000000
      8.41291625657   -4.20645812828    0.00000000000   -2.00000000000
      4.20645812828   -8.41291625657    0.00000000000   -2.00000000000
     -4.20645812828   -8.41291625657    0.00000000000   -2.00000000000
     -8.41291625657   -4.20645812828    0.00000000000   -2.00000000000
     -8.41290893540    0.00000897147   -4.23909984007   -2.00000000000
      0.00000732117    8.41292522803   -4.23909984007   -2.00000000000
      8.41292357774    0.00000897147   -4.23909984007   -2.00000000000
      0.00000732117   -8.41290728510   -4.23909984007   -2.00000000000
     -4.20645080711    0.00000897147   -8.44555796836   -2.00000000000
      0.00000732117    4.20646709975   -8.44555796836   -2.00000000000
      4.20646544946    0.00000897147   -8.44555796836   -2.00000000000
      0.00000732117   -4.20644915682   -8.44555796836   -2.00000000000
     -8.41291074714    4.20646646256   -2.12731743682    2.00000000000
     -4.20645261886    8.41292459085   -2.12731743682    2.00000000000
      4.20646363771    8.41292459085   -2.12731743682    2.00000000000
      8.41292176600    4.20646646256   -2.12731743682    2.00000000000
      8.41292176600   -4.20644979401   -2.12731743682    2.00000000000
      4.20646363771   -8.41290792229   -2.12731743682    2.00000000000
     -4.20645261886   -8.41290792229   -2.12731743682    2.00000000000
     -8.41291074714   -4.20644979401   -2.12731743682    2.00000000000
     -8.41290893540    2.10323803561   -4.23909984007    2.00000000000
     -2.10322174297    8.41292522803   -4.23909984007    2.00000000000
      2.10323638531    8.41292522803   -4.23909984007    2.00000000000
      8.41292357774    2.10323803561   -4.23909984007    2.00000000000
      8.41292357774   -2.10322009268   -4.23909984007    2.00000000000
      2.10323638531   -8.41290728510   -4.23909984007    2.00000000000
     -2.10322174297   -8.41290728510   -4.23909984007    2.00000000000
     -8.41290893540   -2.10322009268   -4.23909984007    2.00000000000
     -4.20645080711    2.10323803561   -8.44555796836    2.00000000000
     -2.10322174297    4.20646709975   -8.44555796836    2.00000000000
      2.10323638531    4.20646709975   -8.44555796836    2.00000000000
      4.20646544946    2.10323803561   -8.44555796836    2.00000000000
      4.20646544946   -2.10322009268   -8.44555796836    2.00000000000
      2.10323638531   -4.20644915682   -8.44555796836    2.00000000000
     -2.10322174297   -4.20644915682   -8.44555796836    2.00000000000
     -4.20645080711   -2.10322009268   -8.44555796836    2.00000000000
    -10.51614246535    0.00000373010   -0.04129472389    2.00000000000
     -0.00000077520   10.51614997580   -0.04127288263    2.00000000000
     10.51614817607    0.00000373010   -0.04129472389    2.00000000000
     -0.00000077520  -10.51614066562   -0.04127288263    2.00000000000
      0.00000732117    0.00000897147  -10.54878703250    2.00000000000
    -10.51614539454    2.10323249699   -0.00000184672   -2.00000000000
     -2.10322913797   10.51614875355   -0.00000184672   -2.00000000000
      2.10322899032   10.51614875355   -0.00000184672   -2.00000000000
     10.51614524688    2.10323249699   -0.00000184672   -2.00000000000
     10.51614524688   -2.10322563130   -0.00000184672   -2.00000000000
      2.10322899032  -10.51614188787   -0.00000184672   -2.00000000000
     -2.10322913797  -10.51614188787   -0.00000184672   -2.00000000000
    -10.51614539454   -2.10322563130   -0.00000184672   -2.00000000000
    -10.51614263489    0.00000013655   -2.13228003377   -2.00000000000
      0.00000097398   10.51614843360   -2.13226748721   -2.00000000000
     10.51614800653    0.00000013655   -2.13228003377   -2.00000000000
      0.00000097398  -10.51614220782   -2.13226748721   -2.00000000000
     -2.10322174297    0.00000897147  -10.54878703250   -2.00000000000
      0.00000732117    2.10323803561  -10.54878703250   -2.00000000000
      2.10323638531    0.00000897147  -10.54878703250   -2.00000000000
      0.00000732117   -2.10322009268  -10.54878703250   -2.00000000000
    -10.51613973119    2.10323704324   -2.12732261718    2.00000000000
     -2.10322347462   10.51615329981   -2.12732261718    2.00000000000
      2.10323465367   10.51615329981   -2.12732261718    2.00000000000
     10.51615091024    2.10323704324   -2.12732261718    2.00000000000
     10.51615091024   -2.10322108505   -2.12732261718    2.00000000000
      2.10323465367  -10.51613734162   -2.12732261718    2.00000000000
     -2.10322347462  -10.51613734162   -2.12732261718    2.00000000000
    -10.51613973119   -2.10322108505   -2.12732261718    2.00000000000
     -2.10322174297    2.10323803561  -10.54878703250    2.00000000000
      2.10323638531    2.10323803561  -10.54878703250    2.00000000000
      2.10323638531   -2.10322009268  -10.54878703250    2.00000000000
     -2.10322174297   -2.10322009268  -10.54878703250    2.00000000000
     -6.30967987125    6.30969616389   -4.23909984007   -2.00000000000
      6.30969451360    6.30969616389   -4.23909984007   -2.00000000000
      6.30969451360   -6.30967822096   -4.23909984007   -2.00000000000
     -6.30967987125   -6.30967822096   -4.23909984007   -2.00000000000
     -6.30967987125    4.20646709975   -6.34232890421   -2.00000000000
     -4.20645080711    6.30969616389   -6.34232890421   -2.00000000000
      4.20646544946    6.30969616389   -6.34232890421   -2.00000000000
      6.30969451360    4.20646709975   -6.34232890421   -2.00000000000
      6.30969451360   -4.20644915682   -6.34232890421   -2.00000000000
      4.20646544946   -6.30967822096   -6.34232890421   -2.00000000000
     -4.20645080711   -6.30967822096   -6.34232890421   -2.00000000000
     -6.30967987125   -4.20644915682   -6.34232890421   -2.00000000000
     -8.41290893540    4.20646709975   -4.23909984007   -2.00000000000
     -4.20645080711    8.41292522803   -4.23909984007   -2.00000000000
      4.20646544946    8.41292522803   -4.23909984007   -2.00000000000
      8.41292357774    4.20646709975   -4.23909984007   -2.00000000000
      8.41292357774   -4.20644915682   -4.23909984007   -2.00000000000
      4.20646544946   -8.41290728510   -4.23909984007   -2.00000000000
     -4.20645080711   -8.41290728510   -4.23909984007   -2.00000000000
     -8.41290893540   -4.20644915682   -4.23909984007   -2.00000000000
     -4.20645080711    4.20646709975   -8.44555796836   -2.00000000000
      4.20646544946    4.20646709975   -8.44555796836   -2.00000000000
      4.20646544946   -4.20644915682   -8.44555796836   -2.00000000000
     -4.20645080711   -4.20644915682   -8.44555796836   -2.00000000000
     -8.41291703177    6.30969184751   -0.04127288263    2.00000000000
     -6.30968433707    8.41291998667   -0.04129472389    2.00000000000
      6.30969004779    8.41291998667   -0.04129472389    2.00000000000
      8.41291548137    6.30969184751   -0.04127288263    2.00000000000
      8.41291548137   -6.30968253734   -0.04127288263    2.00000000000
      6.30969004779   -8.41291252647   -0.04129472389    2.00000000000
     -6.30968433707   -8.41291252647   -0.04129472389    2.00000000000
     -8.41291703177   -6.30968253734   -0.04127288263    2.00000000000
     -8.41290893540    0.00000897147   -6.34232890421    2.00000000000
      0.00000732117    8.41292522803   -6.34232890421    2.00000000000
      8.41292357774    0.00000897147   -6.34232890421    2.00000000000
      0.00000732117   -8.41290728510   -6.34232890421    2.00000000000
     -6.30967987125    0.00000897147   -8.44555796836    2.00000000000
      0.00000732117    6.30969616389   -8.44555796836    2.00000000000
      6.30969451360    0.00000897147   -8.44555796836    2.00000000000
      0.00000732117   -6.30967822096   -8.44555796836    2.00000000000
     -8.41291528259    6.30969030531   -2.13226748721   -2.00000000000
     -6.30968450660    8.41291639312   -2.13228003377   -2.00000000000
      6.30968987825    8.41291639312   -2.13228003377   -2.00000000000
      8.41291723054    6.30969030531   -2.13226748721   -2.00000000000
      8.41291723054   -6.30968407954   -2.13226748721   -2.00000000000
      6.30968987825   -8.41291612001   -2.13228003377   -2.00000000000
     -6.30968450660   -8.41291612001   -2.13228003377   -2.00000000000
     -8.41291528259   -6.30968407954   -2.13226748721   -2.00000000000
     -8.41290893540    2.10323803561   -6.34232890421   -2.00000000000
     -2.10322174297    8.41292522803   -6.34232890421   -2.00000000000
      2.10323638531    8.41292522803   -6.34232890421   -2.00000000000
      8.41292357774    2.10323803561   -6.34232890421   -2.00000000000
      8.41292357774   -2.10322009268   -6.34232890421   -2.00000000000
      2.10323638531   -8.41290728510   -6.34232890421   -2.00000000000
     -2.10322174297   -8.41290728510   -6.34232890421   -2.00000000000
     -8.41290893540   -2.10322009268   -6.34232890421   -2.00000000000
     -6.30967987125    2.10323803561   -8.44555796836   -2.00000000000
     -2.10322174297    6.30969616389   -8.44555796836   -2.00000000000
      2.10323638531    6.30969616389   -8.44555796836   -2.00000000000
      6.30969451360    2.10323803561   -8.44555796836   -2.00000000000
      6.30969451360   -2.10322009268   -8.44555796836   -2.00000000000
      2.10323638531   -6.30967822096   -8.44555796836   -2.00000000000
     -2.10322174297   -6.30967822096   -8.44555796836   -2.00000000000
     -6.30967987125   -2.10322009268   -8.44555796836   -2.00000000000
     -6.30967987125    6.30969616389   -6.34232890421    2.00000000000
      6.30969451360    6.30969616389   -6.34232890421    2.00000000000
      6.30969451360   -6.30967822096   -6.34232890421    2.00000000000
     -6.30967987125   -6.30967822096   -6.34232890421    2.00000000000
    -10.51614246535    4.20646185838   -0.04129472389    2.00000000000
     -4.20645890349   10.51614997580   -0.04127288263    2.00000000000
      4.20645735308   10.51614997580   -0.04127288263    2.00000000000
     10.51614817607    4.20646185838   -0.04129472389    2.00000000000
     10.51614817607   -4.20645439819   -0.04129472389    2.00000000000
      4.20645735308  -10.51614066562   -0.04127288263    2.00000000000
     -4.20645890349  -10.51614066562   -0.04127288263    2.00000000000
    -10.51614246535   -4.20645439819   -0.04129472389    2.00000000000
    -10.51613799954    0.00000897147   -4.23909984007    2.00000000000
     -8.41290893540    6.30969616389   -4.23909984007    2.00000000000
     -6.30967987125    8.41292522803   -4.23909984007    2.00000000000
      0.00000732117   10.51615429218   -4.23909984007    2.00000000000
      6.30969451360    8.41292522803   -4.23909984007    2.00000000000
      8.41292357774    6.30969616389   -4.23909984007    2.00000000000
     10.51615264188    0.00000897147   -4.23909984007    2.00000000000
      8.41292357774   -6.30967822096   -4.23909984007    2.00000000000
      6.30969451360   -8.41290728510   -4.23909984007    2.00000000000
      0.00000732117  -10.51613634924   -4.23909984007    2.00000000000
     -6.30967987125   -8.41290728510   -4.23909984007    2.00000000000
     -8.41290893540   -6.30967822096   -4.23909984007    2.00000000000
     -8.41290893540    4.20646709975   -6.34232890421    2.00000000000
     -4.20645080711    8.41292522803   -6.34232890421    2.00000000000
      4.20646544946    8.41292522803   -6.34232890421    2.00000000000
      8.41292357774    4.20646709975   -6.34232890421    2.00000000000
      8.41292357774   -4.20644915682   -6.34232890421    2.00000000000
      4.20646544946   -8.41290728510   -6.34232890421    2.00000000000
     -4.20645080711   -8.41290728510   -6.34232890421    2.00000000000
     -8.41290893540   -4.20644915682   -6.34232890421    2.00000000000
     -6.30967987125    4.20646709975   -8.44555796836    2.00000000000
     -4.20645080711    6.30969616389   -8.44555796836    2.00000000000
      4.20646544946    6.30969616389   -8.44555796836    2.00000000000
      6.30969451360    4.20646709975   -8.44555796836    2.00000000000
      6.30969451360   -4.20644915682   -8.44555796836    2.00000000000
      4.20646544946   -6.30967822096   -8.44555796836    2.00000000000
     -4.20645080711   -6.30967822096   -8.44555796836    2.00000000000
     -6.30967987125   -4.20644915682   -8.44555796836    2.00000000000
     -4.20645080711    0.00000897147  -10.54878703250    2.00000000000
      0.00000732117    4.20646709975  -10.54878703250    2.00000000000
      4.20646544946    0.00000897147  -10.54878703250    2.00000000000
      0.00000732117   -4.20644915682  -10.54878703250    2.00000000000
    -10.51614263489    4.20645826484   -2.13228003377   -2.00000000000
     -4.20645715431   10.51614843360   -2.13226748721   -2.00000000000
      4.20645910226   10.51614843360   -2.13226748721   -2.00000000000
     10.51614800653    4.20645826484   -2.13228003377   -2.00000000000
     10.51614800653   -4.20645799173   -2.13228003377   -2.00000000000
      4.20645910226  -10.51614220782   -2.13226748721   -2.00000000000
     -4.20645715431  -10.51614220782   -2.13226748721   -2.00000000000
    -10.51614263489   -4.20645799173   -2.13228003377   -2.00000000000
    -10.51613799954    2.10323803561   -4.23909984007   -2.00000000000
     -2.10322174297   10.51615429218   -4.23909984007   -2.00000000000
      2.10323638531   10.51615429218   -4.23909984007   -2.00000000000
     10.51615264188    2.10323803561   -4.23909984007   -2.00000000000
     10.51615264188   -2.10322009268   -4.23909984007   -2.00000000000
      2.10323638531  -10.51613634924   -4.23909984007   -2.00000000000
     -2.10322174297  -10.51613634924   -4.23909984007   -2.00000000000
    -10.51613799954   -2.10322009268   -4.23909984007   -2.00000000000
     -4.20645080711    2.10323803561  -10.54878703250   -2.00000000000
     -2.10322174297    4.20646709975  -10.54878703250   -2.00000000000
      2.10323638531    4.20646709975  -10.54878703250   -2.00000000000
      4.20646544946    2.10323803561  -10.54878703250   -2.00000000000
      4.20646544946   -2.10322009268  -10.54878703250   -2.00000000000
      2.10323638531   -4.20644915682  -10.54878703250   -2.00000000000
     -2.10322174297   -4.20644915682  -10.54878703250   -2.00000000000
     -4.20645080711   -2.10322009268  -10.54878703250   -2.00000000000
     -8.41291625657    8.41291625657    0.00000000000   -2.00000000000
      8.41291625657    8.41291625657    0.00000000000   -2.00000000000
      8.41291625657   -8.41291625657    0.00000000000   -2.00000000000
     -8.41291625657   -8.41291625657    0.00000000000   -2.00000000000
     -8.41290893540    0.00000897147   -8.44555796836   -2.00000000000
      0.00000732117    8.41292522803   -8.44555796836   -2.00000000000
      8.41292357774    0.00000897147   -8.44555796836   -2.00000000000
      0.00000732117   -8.41290728510   -8.44555796836   -2.00000000000
     -8.41291074714    8.41292459085   -2.12731743682    2.00000000000
      8.41292176600    8.41292459085   -2.12731743682    2.00000000000
      8.41292176600   -8.41290792229   -2.12731743682    2.00000000000
     -8.41291074714   -8.41290792229   -2.12731743682    2.00000000000
    -10.51613799954    4.20646709975   -4.23909984007    2.00000000000
     -4.20645080711   10.51615429218   -4.23909984007    2.00000000000
      4.20646544946   10.51615429218   -4.23909984007    2.00000000000
     10.51615264188    4.20646709975   -4.23909984007    2.00000000000
     10.51615264188   -4.20644915682   -4.23909984007    2.00000000000
      4.20646544946  -10.51613634924   -4.23909984007    2.00000000000
     -4.20645080711  -10.51613634924   -4.23909984007    2.00000000000
    -10.51613799954   -4.20644915682   -4.23909984007    2.00000000000
     -8.41290893540    2.10323803561   -8.44555796836    2.00000000000
     -2.10322174297    8.41292522803   -8.44555796836    2.00000000000
      2.10323638531    8.41292522803   -8.44555796836    2.00000000000
      8.41292357774    2.10323803561   -8.44555796836    2.00000000000
      8.41292357774   -2.10322009268   -8.44555796836    2.00000000000
      2.10323638531   -8.41290728510   -8.44555796836    2.00000000000
     -2.10322174297   -8.41290728510   -8.44555796836    2.00000000000
     -8.41290893540   -2.10322009268   -8.44555796836    2.00000000000
     -4.20645080711    4.20646709975  -10.54878703250    2.00000000000
      4.20646544946    4.20646709975  -10.54878703250    2.00000000000
      4.20646544946   -4.20644915682  -10.54878703250    2.00000000000
     -4.20645080711   -4.20644915682  -10.54878703250    2.00000000000
    -10.51614539454    6.30969062527   -0.00000184672   -2.00000000000
     -6.30968726625   10.51614875355   -0.00000184672   -2.00000000000
      6.30968711860   10.51614875355   -0.00000184672   -2.00000000000
     10.51614524688    6.30969062527   -0.00000184672   -2.00000000000
     10.51614524688   -6.30968375958   -0.00000184672   -2.00000000000
      6.30968711860  -10.51614188787   -0.00000184672   -2.00000000000
     -6.30968726625  -10.51614188787   -0.00000184672   -2.00000000000
    -10.51614539454   -6.30968375958   -0.00000184672   -2.00000000000
    -10.51613799954    0.00000897147   -6.34232890421   -2.00000000000
     -8.41290893540    6.30969616389   -6.34232890421   -2.00000000000
     -6.30967987125    8.41292522803   -6.34232890421   -2.00000000000
      0.00000732117   10.51615429218   -6.34232890421   -2.00000000000
      6.30969451360    8.41292522803   -6.34232890421   -2.00000000000
      8.41292357774    6.30969616389   -6.34232890421   -2.00000000000
     10.51615264188    0.00000897147   -6.34232890421   -2.00000000000
      8.41292357774   -6.30967822096   -6.34232890421   -2.00000000000
      6.30969451360   -8.41290728510   -6.34232890421   -2.00000000000
      0.00000732117  -10.51613634924   -6.34232890421   -2.00000000000
     -6.30967987125   -8.41290728510   -6.34232890421   -2.00000000000
     -8.41290893540   -6.30967822096   -6.34232890421   -2.00000000000
     -6.30967987125    6.30969616389   -8.44555796836   -2.00000000000
      6.30969451360    6.30969616389   -8.44555796836   -2.00000000000
      6.30969451360   -6.30967822096   -8.44555796836   -2.00000000000
     -6.30967987125   -6.30967822096   -8.44555796836   -2.00000000000
     -6.30967987125    0.00000897147  -10.54878703250   -2.00000000000
      0.00000732117    6.30969616389  -10.54878703250   -2.00000000000
      6.30969451360    0.00000897147  -10.54878703250   -2.00000000000
      0.00000732117   -6.30967822096  -10.54878703250   -2.00000000000
    -10.51613973119    6.30969517152   -2.12732261718    2.00000000000
     -6.30968160290   10.51615329981   -2.12732261718    2.00000000000
      6.30969278195   10.51615329981   -2.12732261718    2.00000000000
     10.51615091024    6.30969517152   -2.12732261718    2.00000000000
     10.51615091024   -6.30967921333   -2.12732261718    2.00000000000
      6.30969278195  -10.51613734162   -2.12732261718    2.00000000000
     -6.30968160290  -10.51613734162   -2.12732261718    2.00000000000
    -10.51613973119   -6.30967921333   -2.12732261718    2.00000000000
    -10.51613799954    2.10323803561   -6.34232890421    2.00000000000
     -2.10322174297   10.51615429218   -6.34232890421    2.00000000000
      2.10323638531   10.51615429218   -6.34232890421    2.00000000000
     10.51615264188    2.10323803561   -6.34232890421    2.00000000000
     10.51615264188   -2.10322009268   -6.34232890421    2.00000000000
      2.10323638531  -10.51613634924   -6.34232890421    2.00000000000
     -2.10322174297  -10.51613634924   -6.34232890421    2.00000000000
    -10.51613799954   -2.10322009268   -6.34232890421    2.00000000000
     -6.30967987125    2.10323803561  -10.54878703250    2.00000000000
     -2.10322174297    6.30969616389  -10.54878703250    2.00000000000
      2.10323638531    6.30969616389  -10.54878703250    2.00000000000
      6.30969451360    2.10323803561  -10.54878703250    2.00000000000
      6.30969451360   -2.10322009268  -10.54878703250    2.00000000000
      2.10323638531   -6.30967822096  -10.54878703250    2.00000000000
     -2.10322174297   -6.30967822096  -10.54878703250    2.00000000000
     -6.30967987125   -2.10322009268  -10.54878703250    2.00000000000
    -12.61937438485    0.00000000000    0.00000000000   -2.00000000000
      0.00000000000   12.61937438485    0.00000000000   -2.00000000000
     12.61937438485    0.00000000000    0.00000000000   -2.00000000000
      0.00000000000  -12.61937438485    0.00000000000   -2.00000000000
     -8.41290893540    8.41292522803   -4.23909984007   -2.00000000000
      8.41292357774    8.41292522803   -4.23909984007   -2.00000000000
      8.41292357774   -8.41290728510   -4.23909984007   -2.00000000000
     -8.41290893540   -8.41290728510   -4.23909984007   -2.00000000000
     -8.41290893540    4.20646709975   -8.44555796836   -2.00000000000
     -4.20645080711    8.41292522803   -8.44555796836   -2.00000000000
      4.20646544946    8.41292522803   -8.44555796836   -2.00000000000
      8.41292357774    4.20646709975   -8.44555796836   -2.00000000000
      8.41292357774   -4.20644915682   -8.44555796836   -2.00000000000
      4.20646544946   -8.41290728510   -8.44555796836   -2.00000000000
     -4.20645080711   -8.41290728510   -8.44555796836   -2.00000000000
     -8.41290893540   -4.20644915682   -8.44555796836   -2.00000000000
      0.00000732117    0.00000897147  -12.65201609664   -2.00000000000
    -12.61937516006    2.10323371923   -0.04127288263    2.00000000000
     -2.10322620878   12.61937811495   -0.04129472389    2.00000000000
      2.10323191950   12.61937811495   -0.04129472389    2.00000000000
     12.61937360965    2.10323371923   -0.04127288263    2.00000000000
     12.61937360965   -2.10322440905   -0.04127288263    2.00000000000
      2.10323191950  -12.61937065476   -0.04129472389    2.00000000000
     -2.10322620878  -12.61937065476   -0.04129472389    2.00000000000
    -12.61937516006   -2.10322440905   -0.04127288263    2.00000000000
    -12.61936887543    0.00000833428   -2.12731743682    2.00000000000
      0.00000550943   12.61938271913   -2.12731743682    2.00000000000
     12.61937989428    0.00000833428   -2.12731743682    2.00000000000
      0.00000550943  -12.61936605057   -2.12731743682    2.00000000000
     -2.10322174297    0.00000897147  -12.65201609664    2.00000000000
      0.00000732117    2.10323803561  -12.65201609664    2.00000000000
      2.10323638531    0.00000897147  -12.65201609664    2.00000000000
      0.00000732117   -2.10322009268  -12.65201609664    2.00000000000
    -12.61937341088    2.10323217703   -2.13226748721   -2.00000000000
     -2.10322637832   12.61937452141   -2.13228003377   -2.00000000000
      2.10323174996   12.61937452141   -2.13228003377   -2.00000000000
     12.61937535883    2.10323217703   -2.13226748721   -2.00000000000
     12.61937535883   -2.10322595126   -2.13226748721   -2.00000000000
      2.10323174996  -12.61937424830   -2.13228003377   -2.00000000000
     -2.10322637832  -12.61937424830   -2.13228003377   -2.00000000000
    -12.61937341088   -2.10322595126   -2.13226748721   -2.00000000000
    -10.51613799954    6.30969616389   -4.23909984007   -2.00000000000
     -6.30967987125   10.51615429218   -4.23909984007   -2.00000000000
      6.30969451360   10.51615429218   -4.23909984007   -2.00000000000
     10.51615264188    6.30969616389   -4.23909984007   -2.00000000000
     10.51615264188   -6.30967822096   -4.23909984007   -2.00000000000
      6.30969451360  -10.51613634924   -4.23909984007   -2.00000000000
     -6.30967987125  -10.51613634924   -4.23909984007   -2.00000000000
    -10.51613799954   -6.30967822096   -4.23909984007   -2.00000000000
    -10.51613799954    4.20646709975   -6.34232890421   -2.00000000000
     -4.20645080711   10.51615429218   -6.34232890421   -2.00000000000
      4.20646544946   10.51615429218   -6.34232890421   -2.00000000000
     10.51615264188    4.20646709975   -6.34232890421   -2.00000000000
     10.51615264188   -4.20644915682   -6.34232890421   -2.00000000000
      4.20646544946  -10.51613634924   -6.34232890421   -2.00000000000
     -4.20645080711  -10.51613634924   -6.34232890421   -2.00000000000
    -10.51613799954   -4.20644915682   -6.34232890421   -2.00000000000
     -6.30967987125    4.20646709975  -10.54878703250   -2.00000000000
     -4.20645080711    6.30969616389  -10.54878703250   -2.00000000000
      4.20646544946    6.30969616389  -10.54878703250   -2.00000000000
      6.30969451360    4.20646709975  -10.54878703250   -2.00000000000
      6.30969451360   -4.20644915682  -10.54878703250   -2.00000000000
      4.20646544946   -6.30967822096  -10.54878703250   -2.00000000000
     -4.20645080711   -6.30967822096  -10.54878703250   -2.00000000000
     -6.30967987125   -4.20644915682  -10.54878703250   -2.00000000000
     -2.10322174297    2.10323803561  -12.65201609664   -2.00000000000
      2.10323638531    2.10323803561  -12.65201609664   -2.00000000000
      2.10323638531   -2.10322009268  -12.65201609664   -2.00000000000
     -2.10322174297   -2.10322009268  -12.65201609664   -2.00000000000
    -12.61937438485    4.20645812828    0.00000000000   -2.00000000000
     -4.20645812828   12.61937438485    0.00000000000   -2.00000000000
      4.20645812828   12.61937438485    0.00000000000   -2.00000000000
     12.61937438485    4.20645812828    0.00000000000   -2.00000000000
     12.61937438485   -4.20645812828    0.00000000000   -2.00000000000
      4.20645812828  -12.61937438485    0.00000000000   -2.00000000000
     -4.20645812828  -12.61937438485    0.00000000000   -2.00000000000
    -12.61937438485   -4.20645812828    0.00000000000   -2.00000000000
    -12.61936706368    0.00000897147   -4.23909984007   -2.00000000000
      0.00000732117   12.61938335632   -4.23909984007   -2.00000000000
     12.61938170602    0.00000897147   -4.23909984007   -2.00000000000
      0.00000732117  -12.61936541339   -4.23909984007   -2.00000000000
     -4.20645080711    0.00000897147  -12.65201609664   -2.00000000000
      0.00000732117    4.20646709975  -12.65201609664   -2.00000000000
      4.20646544946    0.00000897147  -12.65201609664   -2.00000000000
      0.00000732117   -4.20644915682  -12.65201609664   -2.00000000000
    -10.51614246535    8.41291998667   -0.04129472389    2.00000000000
     -8.41291703177   10.51614997580   -0.04127288263    2.00000000000
      8.41291548137   10.51614997580   -0.04127288263    2.00000000000
     10.51614817607    8.41291998667   -0.04129472389    2.00000000000
     10.51614817607   -8.41291252647   -0.04129472389    2.00000000000
      8.41291548137  -10.51614066562   -0.04127288263    2.00000000000
     -8.41291703177  -10.51614066562   -0.04127288263    2.00000000000
    -10.51614246535   -8.41291252647   -0.04129472389    2.00000000000
    -12.61936887543    4.20646646256   -2.12731743682    2.00000000000
     -4.20645261886   12.61938271913   -2.12731743682    2.00000000000
      4.20646363771   12.61938271913   -2.12731743682    2.00000000000
     12.61937989428    4.20646646256   -2.12731743682    2.00000000000
     12.61937989428   -4.20644979401   -2.12731743682    2.00000000000
      4.20646363771  -12.61936605057   -2.12731743682    2.00000000000
     -4.20645261886  -12.61936605057   -2.12731743682    2.00000000000
    -12.61936887543   -4.20644979401   -2.12731743682    2.00000000000
    -12.61936706368    2.10323803561   -4.23909984007    2.00000000000
     -2.10322174297   12.61938335632   -4.23909984007    2.00000000000
      2.10323638531   12.61938335632   -4.23909984007    2.00000000000
     12.61938170602    2.10323803561   -4.23909984007    2.00000000000
     12.61938170602   -2.10322009268   -4.23909984007    2.00000000000
      2.10323638531  -12.61936541339   -4.23909984007    2.00000000000
     -2.10322174297  -12.61936541339   -4.23909984007    2.00000000000
    -12.61936706368   -2.10322009268   -4.23909984007    2.00000000000
     -8.41290893540    8.41292522803   -6.34232890421    2.00000000000
      8.41292357774    8.41292522803   -6.34232890421    2.00000000000
      8.41292357774   -8.41290728510   -6.34232890421    2.00000000000
     -8.41290893540   -8.41290728510   -6.34232890421    2.00000000000
    -10.51613799954    0.00000897147   -8.44555796836    2.00000000000
     -8.41290893540    6.30969616389   -8.44555796836    2.00000000000
     -6.30967987125    8.41292522803   -8.44555796836    2.00000000000
      0.00000732117   10.51615429218   -8.44555796836    2.00000000000
      6.30969451360    8.41292522803   -8.44555796836    2.00000000000
      8.41292357774    6.30969616389   -8.44555796836    2.00000000000
     10.51615264188    0.00000897147   -8.44555796836    2.00000000000
      8.41292357774   -6.30967822096   -8.44555796836    2.00000000000
      6.30969451360   -8.41290728510   -8.44555796836    2.00000000000
      0.00000732117  -10.51613634924   -8.44555796836    2.00000000000
     -6.30967987125   -8.41290728510   -8.44555796836    2.00000000000
     -8.41290893540   -6.30967822096   -8.44555796836    2.00000000000
     -8.41290893540    0.00000897147  -10.54878703250    2.00000000000
      0.00000732117    8.41292522803  -10.54878703250    2.00000000000
      8.41292357774    0.00000897147  -10.54878703250    2.00000000000
      0.00000732117   -8.41290728510  -10.54878703250    2.00000000000
     -4.20645080711    2.10323803561  -12.65201609664    2.00000000000
     -2.10322174297    4.20646709975  -12.65201609664    2.00000000000
      2.10323638531    4.20646709975  -12.65201609664    2.00000000000
      4.20646544946    2.10323803561  -12.65201609664    2.00000000000
      4.20646544946   -2.10322009268  -12.65201609664    2.00000000000
      2.10323638531   -4.20644915682  -12.65201609664    2.00000000000
     -2.10322174297   -4.20644915682  -12.65201609664    2.00000000000
     -4.20645080711   -2.10322009268  -12.65201609664    2.00000000000
    -10.51614263489    8.41291639312   -2.13228003377   -2.00000000000
     -8.41291528259   10.51614843360   -2.13226748721   -2.00000000000
      8.41291723054   10.51614843360   -2.13226748721   -2.00000000000
     10.51614800653    8.41291639312   -2.13228003377   -2.00000000000
     10.51614800653   -8.41291612001   -2.13228003377   -2.00000000000
      8.41291723054  -10.51614220782   -2.13226748721   -2.00000000000
     -8.41291528259  -10.51614220782   -2.13226748721   -2.00000000000
    -10.51614263489   -8.41291612001   -2.13228003377   -2.00000000000
    -10.51613799954    2.10323803561   -8.44555796836   -2.00000000000
     -2.10322174297   10.51615429218   -8.44555796836   -2.00000000000
      2.10323638531   10.51615429218   -8.44555796836   -2.00000000000
     10.51615264188    2.10323803561   -8.44555796836   -2.00000000000
     10.51615264188   -2.10322009268   -8.44555796836   -2.00000000000
      2.10323638531  -10.51613634924   -8.44555796836   -2.00000000000
     -2.10322174297  -10.51613634924   -8.44555796836   -2.00000000000
    -10.51613799954   -2.10322009268   -8.44555796836   -2.00000000000
     -8.41290893540    2.10323803561  -10.54878703250   -2.00000000000
     -2.10322174297    8.41292522803  -10.54878703250   -2.00000000000
      2.10323638531    8.41292522803  -10.54878703250   -2.00000000000
      8.41292357774    2.10323803561  -10.54878703250   -2.00000000000
      8.41292357774   -2.10322009268  -10.54878703250   -2.00000000000
      2.10323638531   -8.41290728510  -10.54878703250   -2.00000000000
     -2.10322174297   -8.41290728510  -10.54878703250   -2.00000000000
     -8.41290893540   -2.10322009268  -10.54878703250   -2.00000000000
    -10.51613799954    6.30969616389   -6.34232890421    2.00000000000
     -6.30967987125   10.51615429218   -6.34232890421    2.00000000000
      6.30969451360   10.51615429218   -6.34232890421    2.00000000000
     10.51615264188    6.30969616389   -6.34232890421    2.00000000000
     10.51615264188   -6.30967822096   -6.34232890421    2.00000000000
      6.30969451360  -10.51613634924   -6.34232890421    2.00000000000
     -6.30967987125  -10.51613634924   -6.34232890421    2.00000000000
    -10.51613799954   -6.30967822096   -6.34232890421    2.00000000000
     -6.30967987125    6.30969616389  -10.54878703250    2.00000000000
      6.30969451360    6.30969616389  -10.54878703250    2.00000000000
      6.30969451360   -6.30967822096  -10.54878703250    2.00000000000
     -6.30967987125   -6.30967822096  -10.54878703250    2.00000000000
    -12.61936706368    4.20646709975   -4.23909984007   -2.00000000000
     -4.20645080711   12.61938335632   -4.23909984007   -2.00000000000
      4.20646544946   12.61938335632   -4.23909984007   -2.00000000000
     12.61938170602    4.20646709975   -4.23909984007   -2.00000000000
     12.61938170602   -4.20644915682   -4.23909984007   -2.00000000000
      4.20646544946  -12.61936541339   -4.23909984007   -2.00000000000
     -4.20645080711  -12.61936541339   -4.23909984007   -2.00000000000
    -12.61936706368   -4.20644915682   -4.23909984007   -2.00000000000
     -4.20645080711    4.20646709975  -12.65201609664   -2.00000000000
      4.20646544946    4.20646709975  -12.65201609664   -2.00000000000
      4.20646544946   -4.20644915682  -12.65201609664   -2.00000000000
     -4.20645080711   -4.20644915682  -12.65201609664   -2.00000000000
    -12.61937516006    6.30969184751   -0.04127288263    2.00000000000
     -6.30968433707   12.61937811495   -0.04129472389    2.00000000000
      6.30969004779   12.61937811495   -0.04129472389    2.00000000000
     12.61937360965    6.30969184751   -0.04127288263    2.00000000000
     12.61937360965   -6.30968253734   -0.04127288263    2.00000000000
      6.30969004779  -12.61937065476   -0.04129472389    2.00000000000
     -6.30968433707  -12.61937065476   -0.04129472389    2.00000000000
    -12.61937516006   -6.30968253734   -0.04127288263    2.00000000000
    -10.51613799954    8.41292522803   -4.23909984007    2.00000000000
     -8.41290893540   10.51615429218   -4.23909984007    2.00000000000
      8.41292357774   10.51615429218   -4.23909984007    2.00000000000
     10.51615264188    8.41292522803   -4.23909984007    2.00000000000
     10.51615264188   -8.41290728510   -4.23909984007    2.00000000000
      8.41292357774  -10.51613634924   -4.23909984007    2.00000000000
     -8.41290893540  -10.51613634924   -4.23909984007    2.00000000000
    -10.51613799954   -8.41290728510   -4.23909984007    2.00000000000
    -12.61936706368    0.00000897147   -6.34232890421    2.00000000000
      0.00000732117   12.61938335632   -6.34232890421    2.00000000000
     12.61938170602    0.00000897147   -6.34232890421    2.00000000000
      0.00000732117  -12.61936541339   -6.34232890421    2.00000000000
    -10.51613799954    4.20646709975   -8.44555796836    2.00000000000
     -4.20645080711   10.51615429218   -8.44555796836    2.00000000000
      4.20646544946   10.51615429218   -8.44555796836    2.00000000000
     10.51615264188    4.20646709975   -8.44555796836    2.00000000000
     10.51615264188   -4.20644915682   -8.44555796836    2.00000000000
      4.20646544946  -10.51613634924   -8.44555796836    2.00000000000
     -4.20645080711  -10.51613634924   -8.44555796836    2.00000000000
    -10.51613799954   -4.20644915682   -8.44555796836    2.00000000000
     -8.41290893540    4.20646709975  -10.54878703250    2.00000000000
     -4.20645080711    8.41292522803  -10.54878703250    2.00000000000
      4.20646544946    8.41292522803  -10.54878703250    2.00000000000
      8.41292357774    4.20646709975  -10.54878703250    2.00000000000
      8.41292357774   -4.20644915682  -10.54878703250    2.00000000000
      4.20646544946   -8.41290728510  -10.54878703250    2.00000000000
     -4.20645080711   -8.41290728510  -10.54878703250    2.00000000000
     -8.41290893540   -4.20644915682  -10.54878703250    2.00000000000
     -6.30967987125    0.00000897147  -12.65201609664    2.00000000000
      0.00000732117    6.30969616389  -12.65201609664    2.00000000000
      6.30969451360    0.00000897147  -12.65201609664    2.00000000000
      0.00000732117   -6.30967822096  -12.65201609664    2.00000000000
    -12.61937341088    6.30969030531   -2.13226748721   -2.00000000000
     -6.30968450660   12.61937452141   -2.13228003377   -2.00000000000
      6.30968987825   12.61937452141   -2.13228003377   -2.00000000000
     12.61937535883    6.30969030531   -2.13226748721   -2.00000000000
     12.61937535883   -6.30968407954   -2.13226748721   -2.00000000000
      6.30968987825  -12.61937424830   -2.13228003377   -2.00000000000
     -6.30968450660  -12.61937424830   -2.13228003377   -2.00000000000
    -12.61937341088   -6.30968407954   -2.13226748721   -2.00000000000
    -12.61936706368    2.10323803561   -6.34232890421   -2.00000000000
     -2.10322174297   12.61938335632   -6.34232890421   -2.00000000000
      2.10323638531   12.61938335632   -6.34232890421   -2.00000000000
     12.61938170602    2.10323803561   -6.34232890421   -2.00000000000
     12.61938170602   -2.10322009268   -6.34232890421   -2.00000000000
      2.10323638531  -12.61936541339   -6.34232890421   -2.00000000000
     -2.10322174297  -12.61936541339   -6.34232890421   -2.00000000000
    -12.61936706368   -2.10322009268   -6.34232890421   -2.00000000000
     -6.30967987125    2.10323803561  -12.65201609664   -2.00000000000
     -2.10322174297    6.30969616389  -12.65201609664   -2.00000000000
      2.10323638531    6.30969616389  -12.65201609664   -2.00000000000
      6.30969451360    2.10323803561  -12.65201609664   -2.00000000000
      6.30969451360   -2.10322009268  -12.65201609664   -2.00000000000
      2.10323638531   -6.30967822096  -12.65201609664   -2.00000000000
     -2.10322174297   -6.30967822096  -12.65201609664   -2.00000000000
     -6.30967987125   -2.10322009268  -12.65201609664   -2.00000000000
     -8.41290893540    8.41292522803   -8.44555796836   -2.00000000000
      8.41292357774    8.41292522803   -8.44555796836   -2.00000000000
      8.41292357774   -8.41290728510   -8.44555796836   -2.00000000000
     -8.41290893540   -8.41290728510   -8.44555796836   -2.00000000000
    -14.72260059364    0.00000373010   -0.04129472389    2.00000000000
     -0.00000077520   14.72260810408   -0.04127288263    2.00000000000
     14.72260630435    0.00000373010   -0.04129472389    2.00000000000
     -0.00000077520  -14.72259879391   -0.04127288263    2.00000000000
    -12.61936706368    6.30969616389   -4.23909984007    2.00000000000
     -6.30967987125   12.61938335632   -4.23909984007    2.00000000000
      6.30969451360   12.61938335632   -4.23909984007    2.00000000000
     12.61938170602    6.30969616389   -4.23909984007    2.00000000000
     12.61938170602   -6.30967822096   -4.23909984007    2.00000000000
      6.30969451360  -12.61936541339   -4.23909984007    2.00000000000
     -6.30967987125  -12.61936541339   -4.23909984007    2.00000000000
    -12.61936706368   -6.30967822096   -4.23909984007    2.00000000000
    -12.61936706368    4.20646709975   -6.34232890421    2.00000000000
     -4.20645080711   12.61938335632   -6.34232890421    2.00000000000
      4.20646544946   12.61938335632   -6.34232890421    2.00000000000
     12.61938170602    4.20646709975   -6.34232890421    2.00000000000
     12.61938170602   -4.20644915682   -6.34232890421    2.00000000000
      4.20646544946  -12.61936541339   -6.34232890421    2.00000000000
     -4.20645080711  -12.61936541339   -6.34232890421    2.00000000000
    -12.61936706368   -4.20644915682   -6.34232890421    2.00000000000
     -6.30967987125    4.20646709975  -12.65201609664    2.00000000000
     -4.20645080711    6.30969616389  -12.65201609664    2.00000000000
      4.20646544946    6.30969616389  -12.65201609664    2.00000000000
      6.30969451360    4.20646709975  -12.65201609664    2.00000000000
      6.30969451360   -4.20644915682  -12.65201609664    2.00000000000
      4.20646544946   -6.30967822096  -12.65201609664    2.00000000000
     -4.20645080711   -6.30967822096  -12.65201609664    2.00000000000
     -6.30967987125   -4.20644915682  -12.65201609664    2.00000000000
      0.00000732117    0.00000897147  -14.75524516078    2.00000000000
    -14.72260352282    2.10323249699   -0.00000184672   -2.00000000000
    -10.51614539454   10.51614875355   -0.00000184672   -2.00000000000
     -2.10322913797   14.72260688184   -0.00000184672   -2.00000000000
      2.10322899032   14.72260688184   -0.00000184672   -2.00000000000
     10.51614524688   10.51614875355   -0.00000184672   -2.00000000000
     14.72260337517    2.10323249699   -0.00000184672   -2.00000000000
     14.72260337517   -2.10322563130   -0.00000184672   -2.00000000000
     10.51614524688  -10.51614188787   -0.00000184672   -2.00000000000
      2.10322899032  -14.72260001615   -0.00000184672   -2.00000000000
     -2.10322913797  -14.72260001615   -0.00000184672   -2.00000000000
    -10.51614539454  -10.51614188787   -0.00000184672   -2.00000000000
    -14.72260352282   -2.10322563130   -0.00000184672   -2.00000000000
    -14.72260076317    0.00000013655   -2.13228003377   -2.00000000000
      0.00000097398   14.72260656188   -2.13226748721   -2.00000000000
     14.72260613482    0.00000013655   -2.13228003377   -2.00000000000
      0.00000097398  -14.72260033611   -2.13226748721   -2.00000000000
    -10.51613799954    8.41292522803   -6.34232890421   -2.00000000000
     -8.41290893540   10.51615429218   -6.34232890421   -2.00000000000
      8.41292357774   10.51615429218   -6.34232890421   -2.00000000000
     10.51615264188    8.41292522803   -6.34232890421   -2.00000000000
     10.51615264188   -8.41290728510   -6.34232890421   -2.00000000000
      8.41292357774  -10.51613634924   -6.34232890421   -2.00000000000
     -8.41290893540  -10.51613634924   -6.34232890421   -2.00000000000
    -10.51613799954   -8.41290728510   -6.34232890421   -2.00000000000
    -10.51613799954    6.30969616389   -8.44555796836   -2.00000000000
     -6.30967987125   10.51615429218   -8.44555796836   -2.00000000000
      6.30969451360   10.51615429218   -8.44555796836   -2.00000000000
     10.51615264188    6.30969616389   -8.44555796836   -2.00000000000
     10.51615264188   -6.30967822096   -8.44555796836   -2.00000000000
      6.30969451360  -10.51613634924   -8.44555796836   -2.00000000000
     -6.30967987125  -10.51613634924   -8.44555796836   -2.00000000000
    -10.51613799954   -6.30967822096   -8.44555796836   -2.00000000000
    -10.51613799954    0.00000897147  -10.54878703250   -2.00000000000
     -8.41290893540    6.30969616389  -10.54878703250   -2.00000000000
     -6.30967987125    8.41292522803  -10.54878703250   -2.00000000000
      0.00000732117   10.51615429218  -10.54878703250   -2.00000000000
      6.30969451360    8.41292522803  -10.54878703250   -2.00000000000
      8.41292357774    6.30969616389  -10.54878703250   -2.00000000000
     10.51615264188    0.00000897147  -10.54878703250   -2.00000000000
      8.41292357774   -6.30967822096  -10.54878703250   -2.00000000000
      6.30969451360   -8.41290728510  -10.54878703250   -2.00000000000
      0.00000732117  -10.51613634924  -10.54878703250   -2.00000000000
     -6.30967987125   -8.41290728510  -10.54878703250   -2.00000000000
     -8.41290893540   -6.30967822096  -10.54878703250   -2.00000000000
     -2.10322174297    0.00000897147  -14.75524516078   -2.00000000000
      0.00000732117    2.10323803561  -14.75524516078   -2.00000000000
      2.10323638531    0.00000897147  -14.75524516078   -2.00000000000
      0.00000732117   -2.10322009268  -14.75524516078   -2.00000000000
    -14.72259785947    2.10323704324   -2.12732261718    2.00000000000
    -10.51613973119   10.51615329981   -2.12732261718    2.00000000000
     -2.10322347462   14.72261142809   -2.12732261718    2.00000000000
      2.10323465367   14.72261142809   -2.12732261718    2.00000000000
     10.51615091024   10.51615329981   -2.12732261718    2.00000000000
     14.72260903852    2.10323704324   -2.12732261718    2.00000000000
     14.72260903852   -2.10322108505   -2.12732261718    2.00000000000
     10.51615091024  -10.51613734162   -2.12732261718    2.00000000000
      2.10323465367  -14.72259546990   -2.12732261718    2.00000000000
     -2.10322347462  -14.72259546990   -2.12732261718    2.00000000000
    -10.51613973119  -10.51613734162   -2.12732261718    2.00000000000
    -14.72259785947   -2.10322108505   -2.12732261718    2.00000000000
    -10.51613799954    2.10323803561  -10.54878703250    2.00000000000
     -2.10322174297   10.51615429218  -10.54878703250    2.00000000000
      2.10323638531   10.51615429218  -10.54878703250    2.00000000000
     10.51615264188    2.10323803561  -10.54878703250    2.00000000000
     10.51615264188   -2.10322009268  -10.54878703250    2.00000000000
      2.10323638531  -10.51613634924  -10.54878703250    2.00000000000
     -2.10322174297  -10.51613634924  -10.54878703250    2.00000000000
    -10.51613799954   -2.10322009268  -10.54878703250    2.00000000000
     -2.10322174297    2.10323803561  -14.75524516078    2.00000000000
      2.10323638531    2.10323803561  -14.75524516078    2.00000000000
      2.10323638531   -2.10322009268  -14.75524516078    2.00000000000
     -2.10322174297   -2.10322009268  -14.75524516078    2.00000000000
    -12.61937438485    8.41291625657    0.00000000000   -2.00000000000
     -8.41291625657   12.61937438485    0.00000000000   -2.00000000000
      8.41291625657   12.61937438485    0.00000000000   -2.00000000000
     12.61937438485    8.41291625657    0.00000000000   -2.00000000000
     12.61937438485   -8.41291625657    0.00000000000   -2.00000000000
      8.41291625657  -12.61937438485    0.00000000000   -2.00000000000
     -8.41291625657  -12.61937438485    0.00000000000   -2.00000000000
    -12.61937438485   -8.41291625657    0.00000000000   -2.00000000000
    -12.61936706368    0.00000897147   -8.44555796836   -2.00000000000
      0.00000732117   12.61938335632   -8.44555796836   -2.00000000000
     12.61938170602    0.00000897147   -8.44555796836   -2.00000000000
      0.00000732117  -12.61936541339   -8.44555796836   -2.00000000000
     -8.41290893540    0.00000897147  -12.65201609664   -2.00000000000
      0.00000732117    8.41292522803  -12.65201609664   -2.00000000000
      8.41292357774    0.00000897147  -12.65201609664   -2.00000000000
      0.00000732117   -8.41290728510  -12.65201609664   -2.00000000000
    -14.72260059364    4.20646185838   -0.04129472389    2.00000000000
     -4.20645890349   14.72260810408   -0.04127288263    2.00000000000
      4.20645735308   14.72260810408   -0.04127288263    2.00000000000
     14.72260630435    4.20646185838   -0.04129472389    2.00000000000
     14.72260630435   -4.20645439819   -0.04129472389    2.00000000000
      4.20645735308  -14.72259879391   -0.04127288263    2.00000000000
     -4.20645890349  -14.72259879391   -0.04127288263    2.00000000000
    -14.72260059364   -4.20645439819   -0.04129472389    2.00000000000
    -12.61936887543    8.41292459085   -2.12731743682    2.00000000000
     -8.41291074714   12.61938271913   -2.12731743682    2.00000000000
      8.41292176600   12.61938271913   -2.12731743682    2.00000000000
     12.61937989428    8.41292459085   -2.12731743682    2.00000000000
     12.61937989428   -8.41290792229   -2.12731743682    2.00000000000
      8.41292176600  -12.61936605057   -2.12731743682    2.00000000000
     -8.41291074714  -12.61936605057   -2.12731743682    2.00000000000
    -12.61936887543   -8.41290792229   -2.12731743682    2.00000000000
    -14.72259612782    0.00000897147   -4.23909984007    2.00000000000
      0.00000732117   14.72261242046   -4.23909984007    2.00000000000
     14.72261077017    0.00000897147   -4.23909984007    2.00000000000
      0.00000732117  -14.72259447753   -4.23909984007    2.00000000000
    -12.61936706368    2.10323803561   -8.44555796836    2.00000000000
     -2.10322174297   12.61938335632   -8.44555796836    2.00000000000
      2.10323638531   12.61938335632   -8.44555796836    2.00000000000
     12.61938170602    2.10323803561   -8.44555796836    2.00000000000
     12.61938170602   -2.10322009268   -8.44555796836    2.00000000000
      2.10323638531  -12.61936541339   -8.44555796836    2.00000000000
     -2.10322174297  -12.61936541339   -8.44555796836    2.00000000000
    -12.61936706368   -2.10322009268   -8.44555796836    2.00000000000
     -8.41290893540    2.10323803561  -12.65201609664    2.00000000000
     -2.10322174297    8.41292522803  -12.65201609664    2.00000000000
      2.10323638531    8.41292522803  -12.65201609664    2.00000000000
      8.41292357774    2.10323803561  -12.65201609664    2.00000000000
      8.41292357774   -2.10322009268  -12.65201609664    2.00000000000
      2.10323638531   -8.41290728510  -12.65201609664    2.00000000000
     -2.10322174297   -8.41290728510  -12.65201609664    2.00000000000
[...]
 
 CCSD iteration has converged in  7 steps.
      116.49 MB memory was utilized by CCSD
 
 T1 diagnostic:      8.791E-03            D1 diagnostic:      2.205E-02
 
 CCSD correlation energy [au]:          -0.056422895049
 
 CPU time [min]:   839.863                   Wall time [min]:    12.181
 
 Calculation of (T) correction...
 
 Laplace threshold, nquadmin:  1.00E-02   3
 Number of quadrature points:    3
 
      114.19 MB memory is utilized for (T)

 0%       25%       50%       75%       100%
 |---------|---------|---------|---------| 
 
 (T) correction [au]:                   -0.001360386264
 CCSD(T) correlation energy [au]:       -0.057783281312
 
 CPU time [min]:   841.491                   Wall time [min]:    12.205
 
 MO:    73
 Number of atoms in domain:      19
 Number of atomic orbitals:     412
 Number of atoms for local DF:   14
 Number of fitting functions:  2127  (74.84%)
 Number of occupied orbitals:    44
 Number of virtual  orbitals:   263
 Number of Cholesky vectors:      6
 MP2 energy in ED [au]:          -0.057344294210
 Number of occupied LNOs:        26  (59.09%)
 Number of virtual  LNOs:        75  (28.52%)
 tol*100>norm                     2  8.388403530189768E-003
dropped smallnorm    24    25   2.75743257E-05
dropped smallnorm    26    28   7.64739432E-05
dropped smallnorm    26    29   7.46841123E-05
dropped smallnorm    26    30   5.71566234E-05
dropped smallnorm    92    97   4.30364669E-05
dropped smallnorm    94   100   4.67521320E-05
dropped smallnorm    94   101   7.98964879E-05
dropped smallnorm    94   102   5.77271665E-05
 tol*100>norm                   115  7.869229650728412E-003
 tol*100>norm                   138  7.867033089507883E-003
 tol*100>norm                   161  7.418556960407425E-003
 tol*100>norm                   184  7.524897331046383E-003
 tol*100>norm                   207  7.527256616790570E-003
 tol*100>norm                   230  7.524909374137611E-003
 tol*100>norm                   253  7.708432406043969E-003
 tol*100>norm                   276  7.301417073728266E-003
 avg/min projected vLNO norm    9.9904E-01    9.9441E-01
 Number of Cholesky vectors:      5
 MP2 energy in LIS [au]:         -0.056900846925
 Correction for frozen LNO [au]: -0.000443447285     (0.773%)
 Number of NAFs:                271  (12.74%)
 CPU time [min]:   854.475                   Wall time [min]:    12.391
 

 Direct DF-CCSD(T) calculation
 
 Convergence criterion:  1.0E-05
 
 Number of occupied/virtual/auxiliary orbitals:    26    75   271
    175.02 MB is the minimal memory requirement for (T)
    142.21 MB is the minimal memory requirement for CCSD
 
 MP2 correlation energy [au]:        -0.723524803974
 
 LMP2 domain correlation energy contribution [au]:       -0.056923465460
 
 CPU time [min]:   854.582                   Wall time [min]:    12.393
 
 
 Starting CCSD iterations...
 
                     Residual norm       Correlation Energy
 Iteration  1        0.175956840513       -0.739396772199
 Iteration  2        0.046798522905       -0.754312172068
 Iteration  3        0.015006153095       -0.756495047102
 Iteration  4        0.003210246152       -0.756601693983
 Iteration  5        0.000807615554       -0.756589444177
 Iteration  6        0.000178503751       -0.756589946904
 Iteration  7        0.000043103765       -0.756589671112
 
 CCSD iteration has converged in  7 steps.
      253.27 MB memory was utilized by CCSD
 
 T1 diagnostic:      1.037E-02            D1 diagnostic:      2.858E-02
 
 CCSD correlation energy [au]:          -0.057396767817
 
 CPU time [min]:   857.103                   Wall time [min]:    12.429
 
 Calculation of (T) correction...
 
 Laplace threshold, nquadmin:  1.00E-02   3
 Number of quadrature points:    3
 
      265.20 MB memory is utilized for (T)

 0%       25%       50%       75%       100%
 |---------|---------|---------|---------| 
 
 (T) correction [au]:                   -0.001550898642
 CCSD(T) correlation energy [au]:       -0.058947666459
 
 CPU time [min]:   862.117                   Wall time [min]:    12.501
 
 MO:    74
 Number of atoms in domain:      19
 Number of atomic orbitals:     412
 Number of atoms for local DF:   14
 Number of fitting functions:  2127  (74.84%)
 Number of occupied orbitals:    44
 Number of virtual  orbitals:   263
 Number of Cholesky vectors:      6
 MP2 energy in ED [au]:          -0.057342752134
 Number of occupied LNOs:        26  (59.09%)
 Number of virtual  LNOs:        75  (28.52%)
 tol*100>norm                     2  8.388202791689156E-003
dropped smallnorm    60    61   2.75483016E-05
dropped smallnorm    62    64   7.64759780E-05
dropped smallnorm    62    65   7.46025079E-05
dropped smallnorm    62    66   5.71711338E-05
dropped smallnorm    92    97   4.27847242E-05
dropped smallnorm    94   100   4.68198968E-05
dropped smallnorm    94   101   7.99234558E-05
dropped smallnorm    94   102   5.77508355E-05
 tol*100>norm                   115  7.868443623493029E-003
 tol*100>norm                   138  7.866414743380947E-003
 tol*100>norm                   161  7.527987046781590E-003
 tol*100>norm                   184  7.524899438581721E-003
 tol*100>norm                   207  7.417807592271121E-003
 tol*100>norm                   230  7.524909670976528E-003
 tol*100>norm                   253  7.708397885444274E-003
 tol*100>norm                   276  7.301393005232015E-003
 avg/min projected vLNO norm    9.9888E-01    9.9358E-01
 Number of Cholesky vectors:      5
 MP2 energy in LIS [au]:         -0.056899190087
 Correction for frozen LNO [au]: -0.000443562047     (0.774%)
 Number of NAFs:                271  (12.74%)
 CPU time [min]:   874.956                   Wall time [min]:    12.685
 

 Direct DF-CCSD(T) calculation
 
 Convergence criterion:  1.0E-05
 
 Number of occupied/virtual/auxiliary orbitals:    26    75   271
    175.02 MB is the minimal memory requirement for (T)
    142.21 MB is the minimal memory requirement for CCSD
 
 MP2 correlation energy [au]:        -0.723421631744
 
 LMP2 domain correlation energy contribution [au]:       -0.056921901488
 
 CPU time [min]:   875.058                   Wall time [min]:    12.687
 
 
 Starting CCSD iterations...
 
                     Residual norm       Correlation Energy
 Iteration  1        0.176063507063       -0.739313413550
 Iteration  2        0.046822003268       -0.754230673161
 Iteration  3        0.015007860717       -0.756414282253
 Iteration  4        0.003211443020       -0.756521023797
 Iteration  5        0.000808389514       -0.756508812582
 Iteration  6        0.000178574328       -0.756509322095
 Iteration  7        0.000043100036       -0.756509044368
 
 CCSD iteration has converged in  7 steps.
      253.27 MB memory was utilized by CCSD
 
 T1 diagnostic:      1.037E-02            D1 diagnostic:      2.860E-02
 
 CCSD correlation energy [au]:          -0.057395315959
 
 CPU time [min]:   877.658                   Wall time [min]:    12.724
 
 Calculation of (T) correction...
 
 Laplace threshold, nquadmin:  1.00E-02   3
 Number of quadrature points:    3
 
      265.20 MB memory is utilized for (T)

 0%       25%       50%       75%       100%
 |---------|---------|---------|---------| 
 
 (T) correction [au]:                   -0.001550465195
 CCSD(T) correlation energy [au]:       -0.058945781154
 
 CPU time [min]:   882.637                   Wall time [min]:    12.796
 
 MO:    75
 Number of atoms in domain:      19
 Number of atomic orbitals:     412
 Number of atoms for local DF:   14
 Number of fitting functions:  2127  (74.84%)
 Number of occupied orbitals:    44
 Number of virtual  orbitals:   263
 Number of Cholesky vectors:      6
 MP2 energy in ED [au]:          -0.057343241125
 Number of occupied LNOs:        26  (59.09%)
 Number of virtual  LNOs:        75  (28.52%)
 tol*100>norm                     2  8.389789091942166E-003
dropped smallnorm    78    79   1.95351172E-05
dropped smallnorm    80    82   7.43014201E-05
dropped smallnorm    80    83   8.15428363E-05
dropped smallnorm    80    84   8.04996133E-05
dropped smallnorm    92    97   4.30339824E-05
dropped smallnorm    94   100   4.66067504E-05
dropped smallnorm    94   101   7.95813353E-05
dropped smallnorm    94   102   5.80437855E-05
 tol*100>norm                   115  7.869364926846766E-003
 tol*100>norm                   138  7.868112548092006E-003
 tol*100>norm                   161  7.525887990878181E-003
 tol*100>norm                   184  7.527009689733693E-003
 tol*100>norm                   207  7.525151658245246E-003
 tol*100>norm                   230  7.420241228207411E-003
 tol*100>norm                   253  7.708505309637801E-003
 tol*100>norm                   276  7.301238998903722E-003
 avg/min projected vLNO norm    9.9899E-01    9.9459E-01
 Number of Cholesky vectors:      5
 MP2 energy in LIS [au]:         -0.056900045787
 Correction for frozen LNO [au]: -0.000443195338     (0.773%)
 Number of NAFs:                271  (12.74%)
 CPU time [min]:   895.489                   Wall time [min]:    12.980
 

 Direct DF-CCSD(T) calculation
 
 Convergence criterion:  1.0E-05
 
 Number of occupied/virtual/auxiliary orbitals:    26    75   271
    175.02 MB is the minimal memory requirement for (T)
    142.21 MB is the minimal memory requirement for CCSD
 
 MP2 correlation energy [au]:        -0.723482712135
 
 LMP2 domain correlation energy contribution [au]:       -0.056922599796
 
 CPU time [min]:   895.590                   Wall time [min]:    12.982
 
 
 Starting CCSD iterations...
 
                     Residual norm       Correlation Energy
 Iteration  1        0.175906260937       -0.739332905250
 Iteration  2        0.046774505578       -0.754244936843
 Iteration  3        0.015000064932       -0.756428986948
 Iteration  4        0.003208667251       -0.756535758273
 Iteration  5        0.000807339325       -0.756523509139
 Iteration  6        0.000178406940       -0.756524032652
 Iteration  7        0.000043080655       -0.756523760876
 
 CCSD iteration has converged in  7 steps.
      253.27 MB memory was utilized by CCSD
 
 T1 diagnostic:      1.036E-02            D1 diagnostic:      2.848E-02
 
 CCSD correlation energy [au]:          -0.057396395681
 
 CPU time [min]:   898.108                   Wall time [min]:    13.018
 
 Calculation of (T) correction...
 
 Laplace threshold, nquadmin:  1.00E-02   3
 Number of quadrature points:    3
 
      265.20 MB memory is utilized for (T)

 0%       25%       50%       75%       100%
 |---------|---------|---------|---------| 
 
 (T) correction [au]:                   -0.001550616268
 CCSD(T) correlation energy [au]:       -0.058947011949
 
 CPU time [min]:   902.864                   Wall time [min]:    13.086
 
 MO:    76
 Number of atoms in domain:      19
 Number of atomic orbitals:     412
 Number of atoms for local DF:   14
 Number of fitting functions:  2127  (74.84%)
 Number of occupied orbitals:    44
 Number of virtual  orbitals:   263
 Number of Cholesky vectors:      6
 MP2 energy in ED [au]:          -0.057343352348
 Number of occupied LNOs:        26  (59.09%)
 Number of virtual  LNOs:        75  (28.52%)
 tol*100>norm                     2  8.388932874640898E-003
dropped smallnorm    42    43   1.95869460E-05
dropped smallnorm    44    46   7.42037772E-05
dropped smallnorm    44    47   8.20943829E-05
dropped smallnorm    44    48   8.01335022E-05
dropped smallnorm    92    97   4.30748234E-05
dropped smallnorm    94   100   4.69532469E-05
dropped smallnorm    94   101   7.96017868E-05
dropped smallnorm    94   102   5.80385318E-05
 tol*100>norm                   115  7.866855898150373E-003
 tol*100>norm                   138  7.867821264995845E-003
 tol*100>norm                   161  7.525888762642891E-003
 tol*100>norm                   184  7.420245471109589E-003
 tol*100>norm                   207  7.525153289564746E-003
 tol*100>norm                   230  7.527005272928544E-003
 tol*100>norm                   253  7.708553279286372E-003
 tol*100>norm                   276  7.301627385467096E-003
 avg/min projected vLNO norm    9.9898E-01    9.9532E-01
 Number of Cholesky vectors:      5
 MP2 energy in LIS [au]:         -0.056900584283
 Correction for frozen LNO [au]: -0.000442768065     (0.772%)
 Number of NAFs:                271  (12.74%)
 CPU time [min]:   915.760                   Wall time [min]:    13.271
 

 Direct DF-CCSD(T) calculation
 
 Convergence criterion:  1.0E-05
 
 Number of occupied/virtual/auxiliary orbitals:    26    75   271
    175.02 MB is the minimal memory requirement for (T)
    142.21 MB is the minimal memory requirement for CCSD
 
 MP2 correlation energy [au]:        -0.723307148741
 
 LMP2 domain correlation energy contribution [au]:       -0.056923403643
 
 CPU time [min]:   915.859                   Wall time [min]:    13.273
 
 
 Starting CCSD iterations...
 
                     Residual norm       Correlation Energy
 Iteration  1        0.175992248533       -0.739183951697
 Iteration  2        0.046791820317       -0.754094293777
 Iteration  3        0.014999316928       -0.756276418244
 Iteration  4        0.003210065800       -0.756383238219
 Iteration  5        0.000807999429       -0.756371067908
 Iteration  6        0.000178542279       -0.756371601095
 Iteration  7        0.000043123040       -0.756371328332
 
 CCSD iteration has converged in  7 steps.
      253.27 MB memory was utilized by CCSD
 
 T1 diagnostic:      1.036E-02            D1 diagnostic:      2.852E-02
 
 CCSD correlation energy [au]:          -0.057396774097
 
 CPU time [min]:   918.395                   Wall time [min]:    13.309
 
 Calculation of (T) correction...
 
 Laplace threshold, nquadmin:  1.00E-02   3
 Number of quadrature points:    3
 
      265.20 MB memory is utilized for (T)

 0%       25%       50%       75%       100%
 |---------|---------|---------|---------| 
 
 (T) correction [au]:                   -0.001550593179
 CCSD(T) correlation energy [au]:       -0.058947367277
 
 CPU time [min]:   923.415                   Wall time [min]:    13.380
 
 **********************************************************************
 Dimensions of the extended domains:    Minimum / Average / Maximum
 
 Number of atoms in domain:                  18      18.7        19
 Number of atomic orbitals:                 389     404.7       412
 Number of fitting functions:              1387    1830.8      2842
 Number of occupied localized MOs:           24      34.6        76
 Number of PAOs:                            158     212.1       317
 Number of occupied LNOs:                     4      16.1        32
 Number of virtual  LNOs:                     7      46.9        92
 Number of NAFs:                             25     164.4       336
 
 **********************************************************************
 Distant (and weak) pair contributions, corrections
 
 Sum of pair energies [au]:                    -0.002314045791    (0.071%)
 Sum of energy corrections [au]:               -0.027472560706    (0.845%)
 Pair energies + LNO corrections [au]:         -0.029786606497
 Sum of LMP2 contributions [au]:               -3.251609337192
 
 **********************************************************************
  Time of manipulations in the EDs:      max CPU/Wall [s]  all CPU/Wall [min]
 
 PD construction & multipole pair E     588.77     8.50     9.81     0.14
 Construct MO basis of the ED            18.15     0.24    16.95     0.23
 (mu,nu|P) evaluation & trf 2 (ai|P)    677.07     8.99   273.24     3.61
 Evaluate MP2 energy of the ED           35.83     0.48    10.64     0.14
 Transformations to the LNO basis        20.15     0.29     8.23     0.11
 Build W_PQ (Jai or Jpi part)            14.19     0.25     3.48     0.05
 Evaluate MP2 energy of the LIS           1.63     0.02     0.34     0.00
 (mu,nu|P) evaluation & trf 2 J(abQ)    943.88    14.39   320.20     5.04
 Total of the above for all EDs        1710.90    24.67   633.08     9.19
 
 **********************************************************************
 Maximum memory requirement [MB]:       
 
 PD construction & multipole pair E         64.2
 AO integral evaluation in the EDs        1370.3
 (mu,nu|P) evaluation & trf 2 (aI|P)      4266.4
 Evaluate MP2 energy in the EDs           1510.5
 Transformation to the LNO basis           710.8
 (mu,nu|P) to Jab transformation          1855.7
 Evaluate MP2 energy in the LIS            783.4
 Minimum requirement for LIS CCSD          226.3
 Actually allocated  for LIS CCSD          482.8
 Minimum requirement for LIS (T)           293.7
 Actually allocated  for LIS (T)           508.1
 
 ======================================================================
 ======================================================================
 
 
 
 ======================================================================
 ======================================================================
 
 Final local CC results:
 
 Minimum number of correlated electrons:         8       (  5.3%)
 Maximum number of correlated electrons:        64       ( 42.1%)
 Average number of correlated electrons:        32.3     ( 21.2%)
 Minimum number of correlated orbitals:         11       (  2.8%)
 Maximum number of correlated orbitals:        124       ( 31.6%)
 Average number of correlated orbitals:         63.0     ( 16.0%)
 
 CPU time for integral calculations [min]:                  3.894
 Wall time for integral calculations [min]:                 1.000
 
 CPU time for SCF calculation [min]:                      115.382
 Wall time for SCF calculation [min]:                       1.533
 
 CPU time for orbital localization [min]:                   0.530
 Wall time for orbital localization [min]:                  0.030
 
 CPU time for integral transformations [min]:             658.320
 Wall time for integral transformations [min]:              9.539
 
 Reference energy [au]:                                -10168.842987335032
 
 LMP2 correlation energy [au]:                             -3.251609337192
 Total LMP2 energy [au]:                               -10172.094596672225
 
 Total MP2 correction for dropped NAFs [au]:                0.001647745066
 Total MP2 correction [au]:                                -0.028138861431
 
 CPU time for CCSD calculations [min]:                     97.026
 Total CPU time for CCSD [min]:                           875.150
 Wall time for CCSD calculations [min]:                     1.430
 Total wall time for CCSD [min]:                           13.532
 
 CCSD correlation energy [au]:                             -3.240499189321
 Total CCSD energy [au]:                               -10172.083486524354
 CCSD correlation energy + 0.5 MP2 corrections [au]:       -3.254568620037
 Total LNO-CCSD energy with MP2 corrections [au]:      -10172.097555955070
 
 CPU time for (T) corrections [min]:                      168.073
 Total CPU time for CCSD(T) [min]:                       1043.223
 Wall time for (T) corrections [min]:                       2.411
 Total wall time for CCSD(T) [min]:                        15.944
 
 Total (T) correlation energy contribution [au]:           -0.086082209919
 Total (T) correlation energy+0.5 MP2 correction [au]:     -0.100151640635
 CCSD(T) correlation energy [au]:                          -3.326581399240
 Total CCSD(T) energy [au]:                            -10172.169568734273
 CCSD(T) correlation energy + MP2 corrections [au]:        -3.354720260671
 Total LNO-CCSD(T) energy with MP2 corrections [au]:   -10172.197707595704
 
 ======================================================================
 ======================================================================
 
 ************************ 2021-11-07 12:34:33 *************************
                      Normal termination of mrcc.
 **********************************************************************
