 **********************************************************************
                          MRCC program system
 **********************************************************************
 
                              Written by
 Mihaly Kallay, Peter R. Nagy, David Mester, Zoltan Rolik, Gyula Samu,
   Jozsef Csontos, Jozsef Csoka, P. Bernat Szabo, Laszlo Gyevi-Nagy,
    Bence Hegely, Istvan Ladjanszki, Lorant Szegedy, Bence Ladoczki,
       Klara Petrov, Mate Farkas, Pal D. Mezei, and Adam Ganyecz
 
        Department of Physical Chemistry and Materials Science
            Budapest University of Technology and Economics
                  Budapest P.O.Box 91, H-1521 Hungary
 
                              www.mrcc.hu
 
                    Release date: February 22, 2020

 ************************ 2021-11-07 15:04:33 *************************
 Executing minp...

 Reading input from MINP...
 
 Input file:
 
calc=LNO-CCSD(T)
scftype=rhf
verbosity=3
mem=470GB
symm=off
unit=angs
scfiguess=small
scfmaxit=1000
scfalg=locfit1

lcorthr=Loose
ccmaxit=400
usedisk=0
ccsdalg=dfdirect
ccsdthreads=4
ccsdmkl=thr
ptthreads=4

charge=-18
core=39

basis=special
bse_AVTZ
bse_VTZ
bse_VTZ
bse_VTZ
bse_VTZ
bse_VTZ
bse_AVTZ
bse_AVTZ
bse_AVTZ
bse_AVTZ
bse_AVTZ
bse_AVTZ
bse_AVTZ
bse_AVTZ
bse_AVTZ
bse_AVTZ
bse_AVTZ
bse_AVTZ
bse_AVTZ
nothing
nothing
nothing
nothing
nothing
nothing
nothing
nothing
nothing
nothing
nothing
nothing
nothing
nothing
nothing
nothing
nothing
nothing
nothing
nothing
nothing
nothing
nothing
nothing
nothing
nothing
nothing
nothing
nothing
nothing
nothing
nothing
nothing
nothing
nothing
nothing
nothing
nothing
nothing
nothing
nothing
nothing
nothing
nothing
nothing
nothing
nothing
nothing
nothing
nothing
nothing
nothing
nothing
nothing
nothing
nothing
nothing
nothing
nothing
nothing
nothing
nothing
nothing
nothing
nothing
nothing
nothing
nothing
nothing
nothing
nothing
nothing
nothing
nothing
nothing
nothing
nothing
nothing
nothing
nothing
nothing
nothing
nothing
nothing
nothing
nothing
nothing
nothing
nothing
nothing
nothing
nothing
nothing
nothing
nothing
nothing
nothing
nothing
nothing
nothing
nothing
nothing
nothing
nothing
nothing
nothing
nothing
nothing
nothing
nothing
nothing
nothing
nothing
nothing
nothing
nothing
nothing
nothing
nothing
nothing
nothing
nothing
nothing
nothing
nothing
nothing
nothing
nothing
nothing
nothing
nothing
nothing
nothing
nothing
nothing
nothing
nothing
nothing
nothing
nothing
nothing
nothing
nothing
nothing
nothing
nothing

basis_sm=special
STO-3G
STO-3G
STO-3G
STO-3G
STO-3G
STO-3G
STO-3G
STO-3G
STO-3G
STO-3G
STO-3G
STO-3G
STO-3G
STO-3G
STO-3G
STO-3G
STO-3G
STO-3G
STO-3G
nothing
nothing
nothing
nothing
nothing
nothing
nothing
nothing
nothing
nothing
nothing
nothing
nothing
nothing
nothing
nothing
nothing
nothing
nothing
nothing
nothing
nothing
nothing
nothing
nothing
nothing
nothing
nothing
nothing
nothing
nothing
nothing
nothing
nothing
nothing
nothing
nothing
nothing
nothing
nothing
nothing
nothing
nothing
nothing
nothing
nothing
nothing
nothing
nothing
nothing
nothing
nothing
nothing
nothing
nothing
nothing
nothing
nothing
nothing
nothing
nothing
nothing
nothing
nothing
nothing
nothing
nothing
nothing
nothing
nothing
nothing
nothing
nothing
nothing
nothing
nothing
nothing
nothing
nothing
nothing
nothing
nothing
nothing
nothing
nothing
nothing
nothing
nothing
nothing
nothing
nothing
nothing
nothing
nothing
nothing
nothing
nothing
nothing
nothing
nothing
nothing
nothing
nothing
nothing
nothing
nothing
nothing
nothing
nothing
nothing
nothing
nothing
nothing
nothing
nothing
nothing
nothing
nothing
nothing
nothing
nothing
nothing
nothing
nothing
nothing
nothing
nothing
nothing
nothing
nothing
nothing
nothing
nothing
nothing
nothing
nothing
nothing
nothing
nothing
nothing
nothing
nothing
nothing
nothing
nothing
nothing

dfbasis_scf=special
bse_AVTZ_autoaux
bse_VTZ_autoaux
bse_VTZ_autoaux
bse_VTZ_autoaux
bse_VTZ_autoaux
bse_VTZ_autoaux
bse_AVTZ_autoaux
bse_AVTZ_autoaux
bse_AVTZ_autoaux
bse_AVTZ_autoaux
bse_AVTZ_autoaux
bse_AVTZ_autoaux
bse_AVTZ_autoaux
bse_AVTZ_autoaux
bse_AVTZ_autoaux
bse_AVTZ_autoaux
bse_AVTZ_autoaux
bse_AVTZ_autoaux
bse_AVTZ_autoaux
nothing
nothing
nothing
nothing
nothing
nothing
nothing
nothing
nothing
nothing
nothing
nothing
nothing
nothing
nothing
nothing
nothing
nothing
nothing
nothing
nothing
nothing
nothing
nothing
nothing
nothing
nothing
nothing
nothing
nothing
nothing
nothing
nothing
nothing
nothing
nothing
nothing
nothing
nothing
nothing
nothing
nothing
nothing
nothing
nothing
nothing
nothing
nothing
nothing
nothing
nothing
nothing
nothing
nothing
nothing
nothing
nothing
nothing
nothing
nothing
nothing
nothing
nothing
nothing
nothing
nothing
nothing
nothing
nothing
nothing
nothing
nothing
nothing
nothing
nothing
nothing
nothing
nothing
nothing
nothing
nothing
nothing
nothing
nothing
nothing
nothing
nothing
nothing
nothing
nothing
nothing
nothing
nothing
nothing
nothing
nothing
nothing
nothing
nothing
nothing
nothing
nothing
nothing
nothing
nothing
nothing
nothing
nothing
nothing
nothing
nothing
nothing
nothing
nothing
nothing
nothing
nothing
nothing
nothing
nothing
nothing
nothing
nothing
nothing
nothing
nothing
nothing
nothing
nothing
nothing
nothing
nothing
nothing
nothing
nothing
nothing
nothing
nothing
nothing
nothing
nothing
nothing
nothing
nothing
nothing
nothing

dfbasis_cor=special
bse_AVTZ_autoaux
bse_VTZ_autoaux
bse_VTZ_autoaux
bse_VTZ_autoaux
bse_VTZ_autoaux
bse_VTZ_autoaux
bse_AVTZ_autoaux
bse_AVTZ_autoaux
bse_AVTZ_autoaux
bse_AVTZ_autoaux
bse_AVTZ_autoaux
bse_AVTZ_autoaux
bse_AVTZ_autoaux
bse_AVTZ_autoaux
bse_AVTZ_autoaux
bse_AVTZ_autoaux
bse_AVTZ_autoaux
bse_AVTZ_autoaux
bse_AVTZ_autoaux
nothing
nothing
nothing
nothing
nothing
nothing
nothing
nothing
nothing
nothing
nothing
nothing
nothing
nothing
nothing
nothing
nothing
nothing
nothing
nothing
nothing
nothing
nothing
nothing
nothing
nothing
nothing
nothing
nothing
nothing
nothing
nothing
nothing
nothing
nothing
nothing
nothing
nothing
nothing
nothing
nothing
nothing
nothing
nothing
nothing
nothing
nothing
nothing
nothing
nothing
nothing
nothing
nothing
nothing
nothing
nothing
nothing
nothing
nothing
nothing
nothing
nothing
nothing
nothing
nothing
nothing
nothing
nothing
nothing
nothing
nothing
nothing
nothing
nothing
nothing
nothing
nothing
nothing
nothing
nothing
nothing
nothing
nothing
nothing
nothing
nothing
nothing
nothing
nothing
nothing
nothing
nothing
nothing
nothing
nothing
nothing
nothing
nothing
nothing
nothing
nothing
nothing
nothing
nothing
nothing
nothing
nothing
nothing
nothing
nothing
nothing
nothing
nothing
nothing
nothing
nothing
nothing
nothing
nothing
nothing
nothing
nothing
nothing
nothing
nothing
nothing
nothing
nothing
nothing
nothing
nothing
nothing
nothing
nothing
nothing
nothing
nothing
nothing
nothing
nothing
nothing
nothing
nothing
nothing
nothing
nothing

ecp=special
none
none
none
none
none
none
none
none
none
none
none
none
none
none
none
none
none
none
none
ECP-12
ECP-12
ECP-12
ECP-12
ECP-12
ECP-12
ECP-12
ECP-12
ECP-12
ECP-12
ECP-12
ECP-12
ECP-12
ECP-12
ECP-12
ECP-12
ECP-12
ECP-12
ECP-12
ECP-12
ECP-12
ECP-12
ECP-12
ECP-12
ECP-12
ECP-12
ECP-12
ECP-12
ECP-12
ECP-12
ECP-12
ECP-12
ECP-12
ECP-12
ECP-12
ECP-12
ECP-12
ECP-12
ECP-12
ECP-12
ECP-12
ECP-12
ECP-12
ECP-12
ECP-12
ECP-12
ECP-12
ECP-12
ECP-12
ECP-12
ECP-12
ECP-12
ECP-12
ECP-12
ECP-12
ECP-12
ECP-12
ECP-12
ECP-12
ECP-12
ECP-12
ECP-12
ECP-12
ECP-12
ECP-12
ECP-12
ECP-12
ECP-12
ECP-12
ECP-12
ECP-12
ECP-12
ECP-12
ECP-12
ECP-12
ECP-12
ECP-12
ECP-12
ECP-12
ECP-12
ECP-12
ECP-12
ECP-12
ECP-12
ECP-12
ECP-12
ECP-12
ECP-12
ECP-12
ECP-12
ECP-12
ECP-12
ECP-12
ECP-12
ECP-12
ECP-12
ECP-12
ECP-12
ECP-12
ECP-12
ECP-12
ECP-12
ECP-12
ECP-12
ECP-12
ECP-12
ECP-12
ECP-12
ECP-12
ECP-12
ECP-12
ECP-12
ECP-12
ECP-12
ECP-12
ECP-12
ECP-12
ECP-12
ECP-12
ECP-12
ECP-12
ECP-12
ECP-12
ECP-12
ECP-12
ECP-12
ECP-12
ECP-12
ECP-12
ECP-12
ECP-12
ECP-12
ECP-12
ECP-12
ECP-12
ECP-12
ECP-12
ECP-12
ECP-12
ECP-12
ECP-12
ECP-12
ECP-12
ECP-12
ECP-12
ECP-12

unit=angs
geom=xyz
165
Mg5O14ECP146
O     0.00000000000    0.00000000000    0.00000000000
Mg   -2.10322620878    0.00000373010   -0.04129472389
Mg   -0.00000077520    2.10323371923   -0.04127288263
Mg    2.10323191950    0.00000373010   -0.04129472389
Mg   -0.00000077520   -2.10322440905   -0.04127288263
Mg    0.00000550943    0.00000833428   -2.12731743682
O    -2.10322913797    2.10323249699   -0.00000184672
O     2.10322899032    2.10323249699   -0.00000184672
O     2.10322899032   -2.10322563130   -0.00000184672
O    -2.10322913797   -2.10322563130   -0.00000184672
O    -2.10322637832    0.00000013655   -2.13228003377
O     0.00000097398    2.10323217703   -2.13226748721
O     2.10323174996    0.00000013655   -2.13228003377
O     0.00000097398   -2.10322595126   -2.13226748721
O    -4.20645812828    0.00000000000    0.00000000000
O     0.00000000000    4.20645812828    0.00000000000
O     4.20645812828    0.00000000000    0.00000000000
O     0.00000000000   -4.20645812828    0.00000000000
O     0.00000732117    0.00000897147   -4.23909984007
Mg   -2.10322347462    2.10323704324   -2.12732261718
Mg    2.10323465367    2.10323704324   -2.12732261718
Mg    2.10323465367   -2.10322108505   -2.12732261718
Mg   -2.10322347462   -2.10322108505   -2.12732261718
Mg   -4.20645890349    2.10323371923   -0.04127288263
Mg   -2.10322620878    4.20646185838   -0.04129472389
Mg    2.10323191950    4.20646185838   -0.04129472389
Mg    4.20645735308    2.10323371923   -0.04127288263
Mg    4.20645735308   -2.10322440905   -0.04127288263
Mg    2.10323191950   -4.20645439819   -0.04129472389
Mg   -2.10322620878   -4.20645439819   -0.04129472389
Mg   -4.20645890349   -2.10322440905   -0.04127288263
Mg   -4.20645261886    0.00000833428   -2.12731743682
Mg    0.00000550943    4.20646646256   -2.12731743682
Mg    4.20646363771    0.00000833428   -2.12731743682
Mg    0.00000550943   -4.20644979401   -2.12731743682
Mg   -2.10322174297    0.00000897147   -4.23909984007
Mg    0.00000732117    2.10323803561   -4.23909984007
Mg    2.10323638531    0.00000897147   -4.23909984007
Mg    0.00000732117   -2.10322009268   -4.23909984007
Mg   -6.30968433707    0.00000373010   -0.04129472389
Mg   -0.00000077520    6.30969184751   -0.04127288263
Mg    6.30969004779    0.00000373010   -0.04129472389
Mg   -0.00000077520   -6.30968253734   -0.04127288263
Mg   -4.20645261886    4.20646646256   -2.12731743682
Mg    4.20646363771    4.20646646256   -2.12731743682
Mg    4.20646363771   -4.20644979401   -2.12731743682
Mg   -4.20645261886   -4.20644979401   -2.12731743682
Mg   -4.20645080711    2.10323803561   -4.23909984007
Mg   -2.10322174297    4.20646709975   -4.23909984007
Mg    2.10323638531    4.20646709975   -4.23909984007
Mg    4.20646544946    2.10323803561   -4.23909984007
Mg    4.20646544946   -2.10322009268   -4.23909984007
Mg    2.10323638531   -4.20644915682   -4.23909984007
Mg   -2.10322174297   -4.20644915682   -4.23909984007
Mg   -4.20645080711   -2.10322009268   -4.23909984007
Mg    0.00000732117    0.00000897147   -6.34232890421
Mg   -6.30968160290    2.10323704324   -2.12732261718
Mg   -2.10322347462    6.30969517152   -2.12732261718
Mg    2.10323465367    6.30969517152   -2.12732261718
Mg    6.30969278195    2.10323704324   -2.12732261718
Mg    6.30969278195   -2.10322108505   -2.12732261718
Mg    2.10323465367   -6.30967921333   -2.12732261718
Mg   -2.10322347462   -6.30967921333   -2.12732261718
Mg   -6.30968160290   -2.10322108505   -2.12732261718
Mg   -2.10322174297    2.10323803561   -6.34232890421
Mg    2.10323638531    2.10323803561   -6.34232890421
Mg    2.10323638531   -2.10322009268   -6.34232890421
Mg   -2.10322174297   -2.10322009268   -6.34232890421
Mg   -6.30968433707    4.20646185838   -0.04129472389
Mg   -4.20645890349    6.30969184751   -0.04127288263
Mg    4.20645735308    6.30969184751   -0.04127288263
Mg    6.30969004779    4.20646185838   -0.04129472389
Mg    6.30969004779   -4.20645439819   -0.04129472389
Mg    4.20645735308   -6.30968253734   -0.04127288263
Mg   -4.20645890349   -6.30968253734   -0.04127288263
Mg   -6.30968433707   -4.20645439819   -0.04129472389
Mg   -6.30967987125    0.00000897147   -4.23909984007
Mg    0.00000732117    6.30969616389   -4.23909984007
Mg    6.30969451360    0.00000897147   -4.23909984007
Mg    0.00000732117   -6.30967822096   -4.23909984007
Mg   -4.20645080711    0.00000897147   -6.34232890421
Mg    0.00000732117    4.20646709975   -6.34232890421
Mg    4.20646544946    0.00000897147   -6.34232890421
Mg    0.00000732117   -4.20644915682   -6.34232890421
Mg   -8.41291703177    2.10323371923   -0.04127288263
Mg   -2.10322620878    8.41291998667   -0.04129472389
Mg    2.10323191950    8.41291998667   -0.04129472389
Mg    8.41291548137    2.10323371923   -0.04127288263
Mg    8.41291548137   -2.10322440905   -0.04127288263
Mg    2.10323191950   -8.41291252647   -0.04129472389
Mg   -2.10322620878   -8.41291252647   -0.04129472389
Mg   -8.41291703177   -2.10322440905   -0.04127288263
Mg   -8.41291074714    0.00000833428   -2.12731743682
Mg    0.00000550943    8.41292459085   -2.12731743682
Mg    8.41292176600    0.00000833428   -2.12731743682
Mg    0.00000550943   -8.41290792229   -2.12731743682
Mg   -6.30967987125    4.20646709975   -4.23909984007
Mg   -4.20645080711    6.30969616389   -4.23909984007
Mg    4.20646544946    6.30969616389   -4.23909984007
Mg    6.30969451360    4.20646709975   -4.23909984007
Mg    6.30969451360   -4.20644915682   -4.23909984007
Mg    4.20646544946   -6.30967822096   -4.23909984007
Mg   -4.20645080711   -6.30967822096   -4.23909984007
Mg   -6.30967987125   -4.20644915682   -4.23909984007
Mg   -4.20645080711    4.20646709975   -6.34232890421
Mg    4.20646544946    4.20646709975   -6.34232890421
Mg    4.20646544946   -4.20644915682   -6.34232890421
Mg   -4.20645080711   -4.20644915682   -6.34232890421
Mg   -2.10322174297    0.00000897147   -8.44555796836
Mg    0.00000732117    2.10323803561   -8.44555796836
Mg    2.10323638531    0.00000897147   -8.44555796836
Mg    0.00000732117   -2.10322009268   -8.44555796836
Mg   -6.30968160290    6.30969517152   -2.12732261718
Mg    6.30969278195    6.30969517152   -2.12732261718
Mg    6.30969278195   -6.30967921333   -2.12732261718
Mg   -6.30968160290   -6.30967921333   -2.12732261718
Mg   -6.30967987125    2.10323803561   -6.34232890421
Mg   -2.10322174297    6.30969616389   -6.34232890421
Mg    2.10323638531    6.30969616389   -6.34232890421
Mg    6.30969451360    2.10323803561   -6.34232890421
Mg    6.30969451360   -2.10322009268   -6.34232890421
Mg    2.10323638531   -6.30967822096   -6.34232890421
Mg   -2.10322174297   -6.30967822096   -6.34232890421
Mg   -6.30967987125   -2.10322009268   -6.34232890421
Mg   -8.41291074714    4.20646646256   -2.12731743682
Mg   -4.20645261886    8.41292459085   -2.12731743682
Mg    4.20646363771    8.41292459085   -2.12731743682
Mg    8.41292176600    4.20646646256   -2.12731743682
Mg    8.41292176600   -4.20644979401   -2.12731743682
Mg    4.20646363771   -8.41290792229   -2.12731743682
Mg   -4.20645261886   -8.41290792229   -2.12731743682
Mg   -8.41291074714   -4.20644979401   -2.12731743682
Mg   -8.41290893540    2.10323803561   -4.23909984007
Mg   -2.10322174297    8.41292522803   -4.23909984007
Mg    2.10323638531    8.41292522803   -4.23909984007
Mg    8.41292357774    2.10323803561   -4.23909984007
Mg    8.41292357774   -2.10322009268   -4.23909984007
Mg    2.10323638531   -8.41290728510   -4.23909984007
Mg   -2.10322174297   -8.41290728510   -4.23909984007
Mg   -8.41290893540   -2.10322009268   -4.23909984007
Mg   -4.20645080711    2.10323803561   -8.44555796836
Mg   -2.10322174297    4.20646709975   -8.44555796836
Mg    2.10323638531    4.20646709975   -8.44555796836
Mg    4.20646544946    2.10323803561   -8.44555796836
Mg    4.20646544946   -2.10322009268   -8.44555796836
Mg    2.10323638531   -4.20644915682   -8.44555796836
Mg   -2.10322174297   -4.20644915682   -8.44555796836
Mg   -4.20645080711   -2.10322009268   -8.44555796836
Mg  -10.51614246535    0.00000373010   -0.04129472389
Mg   -0.00000077520   10.51614997580   -0.04127288263
Mg   10.51614817607    0.00000373010   -0.04129472389
Mg   -0.00000077520  -10.51614066562   -0.04127288263
Mg    0.00000732117    0.00000897147  -10.54878703250
Mg  -10.51613973119    2.10323704324   -2.12732261718
Mg   -2.10322347462   10.51615329981   -2.12732261718
Mg    2.10323465367   10.51615329981   -2.12732261718
Mg   10.51615091024    2.10323704324   -2.12732261718
Mg   10.51615091024   -2.10322108505   -2.12732261718
Mg    2.10323465367  -10.51613734162   -2.12732261718
Mg   -2.10322347462  -10.51613734162   -2.12732261718
Mg  -10.51613973119   -2.10322108505   -2.12732261718
Mg   -2.10322174297    2.10323803561  -10.54878703250
Mg    2.10323638531    2.10323803561  -10.54878703250
Mg    2.10323638531   -2.10322009268  -10.54878703250
Mg   -2.10322174297   -2.10322009268  -10.54878703250

qmmm=Amber
pointcharges
10070
     -2.10322347462    2.10323704324   -2.12732261718    2.00000000000
      2.10323465367    2.10323704324   -2.12732261718    2.00000000000
      2.10323465367   -2.10322108505   -2.12732261718    2.00000000000
     -2.10322347462   -2.10322108505   -2.12732261718    2.00000000000
     -4.20645890349    2.10323371923   -0.04127288263    2.00000000000
     -2.10322620878    4.20646185838   -0.04129472389    2.00000000000
      2.10323191950    4.20646185838   -0.04129472389    2.00000000000
      4.20645735308    2.10323371923   -0.04127288263    2.00000000000
      4.20645735308   -2.10322440905   -0.04127288263    2.00000000000
      2.10323191950   -4.20645439819   -0.04129472389    2.00000000000
     -2.10322620878   -4.20645439819   -0.04129472389    2.00000000000
     -4.20645890349   -2.10322440905   -0.04127288263    2.00000000000
     -4.20645261886    0.00000833428   -2.12731743682    2.00000000000
      0.00000550943    4.20646646256   -2.12731743682    2.00000000000
      4.20646363771    0.00000833428   -2.12731743682    2.00000000000
      0.00000550943   -4.20644979401   -2.12731743682    2.00000000000
     -2.10322174297    0.00000897147   -4.23909984007    2.00000000000
      0.00000732117    2.10323803561   -4.23909984007    2.00000000000
      2.10323638531    0.00000897147   -4.23909984007    2.00000000000
      0.00000732117   -2.10322009268   -4.23909984007    2.00000000000
     -4.20645715431    2.10323217703   -2.13226748721   -2.00000000000
     -2.10322637832    4.20645826484   -2.13228003377   -2.00000000000
      2.10323174996    4.20645826484   -2.13228003377   -2.00000000000
      4.20645910226    2.10323217703   -2.13226748721   -2.00000000000
      4.20645910226   -2.10322595126   -2.13226748721   -2.00000000000
      2.10323174996   -4.20645799173   -2.13228003377   -2.00000000000
     -2.10322637832   -4.20645799173   -2.13228003377   -2.00000000000
     -4.20645715431   -2.10322595126   -2.13226748721   -2.00000000000
     -2.10322174297    2.10323803561   -4.23909984007   -2.00000000000
      2.10323638531    2.10323803561   -4.23909984007   -2.00000000000
      2.10323638531   -2.10322009268   -4.23909984007   -2.00000000000
     -2.10322174297   -2.10322009268   -4.23909984007   -2.00000000000
     -4.20645812828    4.20645812828    0.00000000000   -2.00000000000
      4.20645812828    4.20645812828    0.00000000000   -2.00000000000
      4.20645812828   -4.20645812828    0.00000000000   -2.00000000000
     -4.20645812828   -4.20645812828    0.00000000000   -2.00000000000
     -4.20645080711    0.00000897147   -4.23909984007   -2.00000000000
      0.00000732117    4.20646709975   -4.23909984007   -2.00000000000
      4.20646544946    0.00000897147   -4.23909984007   -2.00000000000
      0.00000732117   -4.20644915682   -4.23909984007   -2.00000000000
     -6.30968433707    0.00000373010   -0.04129472389    2.00000000000
     -0.00000077520    6.30969184751   -0.04127288263    2.00000000000
      6.30969004779    0.00000373010   -0.04129472389    2.00000000000
     -0.00000077520   -6.30968253734   -0.04127288263    2.00000000000
     -4.20645261886    4.20646646256   -2.12731743682    2.00000000000
      4.20646363771    4.20646646256   -2.12731743682    2.00000000000
      4.20646363771   -4.20644979401   -2.12731743682    2.00000000000
     -4.20645261886   -4.20644979401   -2.12731743682    2.00000000000
     -4.20645080711    2.10323803561   -4.23909984007    2.00000000000
     -2.10322174297    4.20646709975   -4.23909984007    2.00000000000
      2.10323638531    4.20646709975   -4.23909984007    2.00000000000
      4.20646544946    2.10323803561   -4.23909984007    2.00000000000
      4.20646544946   -2.10322009268   -4.23909984007    2.00000000000
      2.10323638531   -4.20644915682   -4.23909984007    2.00000000000
     -2.10322174297   -4.20644915682   -4.23909984007    2.00000000000
     -4.20645080711   -2.10322009268   -4.23909984007    2.00000000000
      0.00000732117    0.00000897147   -6.34232890421    2.00000000000
     -6.30968726625    2.10323249699   -0.00000184672   -2.00000000000
     -2.10322913797    6.30969062527   -0.00000184672   -2.00000000000
      2.10322899032    6.30969062527   -0.00000184672   -2.00000000000
      6.30968711860    2.10323249699   -0.00000184672   -2.00000000000
      6.30968711860   -2.10322563130   -0.00000184672   -2.00000000000
      2.10322899032   -6.30968375958   -0.00000184672   -2.00000000000
     -2.10322913797   -6.30968375958   -0.00000184672   -2.00000000000
     -6.30968726625   -2.10322563130   -0.00000184672   -2.00000000000
     -6.30968450660    0.00000013655   -2.13228003377   -2.00000000000
      0.00000097398    6.30969030531   -2.13226748721   -2.00000000000
      6.30968987825    0.00000013655   -2.13228003377   -2.00000000000
      0.00000097398   -6.30968407954   -2.13226748721   -2.00000000000
     -2.10322174297    0.00000897147   -6.34232890421   -2.00000000000
      0.00000732117    2.10323803561   -6.34232890421   -2.00000000000
      2.10323638531    0.00000897147   -6.34232890421   -2.00000000000
      0.00000732117   -2.10322009268   -6.34232890421   -2.00000000000
     -6.30968160290    2.10323704324   -2.12732261718    2.00000000000
     -2.10322347462    6.30969517152   -2.12732261718    2.00000000000
      2.10323465367    6.30969517152   -2.12732261718    2.00000000000
      6.30969278195    2.10323704324   -2.12732261718    2.00000000000
      6.30969278195   -2.10322108505   -2.12732261718    2.00000000000
      2.10323465367   -6.30967921333   -2.12732261718    2.00000000000
     -2.10322347462   -6.30967921333   -2.12732261718    2.00000000000
     -6.30968160290   -2.10322108505   -2.12732261718    2.00000000000
     -2.10322174297    2.10323803561   -6.34232890421    2.00000000000
      2.10323638531    2.10323803561   -6.34232890421    2.00000000000
      2.10323638531   -2.10322009268   -6.34232890421    2.00000000000
     -2.10322174297   -2.10322009268   -6.34232890421    2.00000000000
     -4.20645080711    4.20646709975   -4.23909984007   -2.00000000000
      4.20646544946    4.20646709975   -4.23909984007   -2.00000000000
      4.20646544946   -4.20644915682   -4.23909984007   -2.00000000000
     -4.20645080711   -4.20644915682   -4.23909984007   -2.00000000000
     -6.30968433707    4.20646185838   -0.04129472389    2.00000000000
     -4.20645890349    6.30969184751   -0.04127288263    2.00000000000
      4.20645735308    6.30969184751   -0.04127288263    2.00000000000
      6.30969004779    4.20646185838   -0.04129472389    2.00000000000
      6.30969004779   -4.20645439819   -0.04129472389    2.00000000000
      4.20645735308   -6.30968253734   -0.04127288263    2.00000000000
     -4.20645890349   -6.30968253734   -0.04127288263    2.00000000000
     -6.30968433707   -4.20645439819   -0.04129472389    2.00000000000
     -6.30967987125    0.00000897147   -4.23909984007    2.00000000000
      0.00000732117    6.30969616389   -4.23909984007    2.00000000000
      6.30969451360    0.00000897147   -4.23909984007    2.00000000000
      0.00000732117   -6.30967822096   -4.23909984007    2.00000000000
     -4.20645080711    0.00000897147   -6.34232890421    2.00000000000
      0.00000732117    4.20646709975   -6.34232890421    2.00000000000
      4.20646544946    0.00000897147   -6.34232890421    2.00000000000
      0.00000732117   -4.20644915682   -6.34232890421    2.00000000000
     -6.30968450660    4.20645826484   -2.13228003377   -2.00000000000
     -4.20645715431    6.30969030531   -2.13226748721   -2.00000000000
      4.20645910226    6.30969030531   -2.13226748721   -2.00000000000
      6.30968987825    4.20645826484   -2.13228003377   -2.00000000000
      6.30968987825   -4.20645799173   -2.13228003377   -2.00000000000
      4.20645910226   -6.30968407954   -2.13226748721   -2.00000000000
     -4.20645715431   -6.30968407954   -2.13226748721   -2.00000000000
     -6.30968450660   -4.20645799173   -2.13228003377   -2.00000000000
     -6.30967987125    2.10323803561   -4.23909984007   -2.00000000000
     -2.10322174297    6.30969616389   -4.23909984007   -2.00000000000
      2.10323638531    6.30969616389   -4.23909984007   -2.00000000000
      6.30969451360    2.10323803561   -4.23909984007   -2.00000000000
      6.30969451360   -2.10322009268   -4.23909984007   -2.00000000000
      2.10323638531   -6.30967822096   -4.23909984007   -2.00000000000
     -2.10322174297   -6.30967822096   -4.23909984007   -2.00000000000
     -6.30967987125   -2.10322009268   -4.23909984007   -2.00000000000
     -4.20645080711    2.10323803561   -6.34232890421   -2.00000000000
     -2.10322174297    4.20646709975   -6.34232890421   -2.00000000000
      2.10323638531    4.20646709975   -6.34232890421   -2.00000000000
      4.20646544946    2.10323803561   -6.34232890421   -2.00000000000
      4.20646544946   -2.10322009268   -6.34232890421   -2.00000000000
      2.10323638531   -4.20644915682   -6.34232890421   -2.00000000000
     -2.10322174297   -4.20644915682   -6.34232890421   -2.00000000000
     -4.20645080711   -2.10322009268   -6.34232890421   -2.00000000000
     -8.41291625657    0.00000000000    0.00000000000   -2.00000000000
      0.00000000000    8.41291625657    0.00000000000   -2.00000000000
      8.41291625657    0.00000000000    0.00000000000   -2.00000000000
      0.00000000000   -8.41291625657    0.00000000000   -2.00000000000
      0.00000732117    0.00000897147   -8.44555796836   -2.00000000000
     -8.41291703177    2.10323371923   -0.04127288263    2.00000000000
     -2.10322620878    8.41291998667   -0.04129472389    2.00000000000
      2.10323191950    8.41291998667   -0.04129472389    2.00000000000
      8.41291548137    2.10323371923   -0.04127288263    2.00000000000
      8.41291548137   -2.10322440905   -0.04127288263    2.00000000000
      2.10323191950   -8.41291252647   -0.04129472389    2.00000000000
     -2.10322620878   -8.41291252647   -0.04129472389    2.00000000000
     -8.41291703177   -2.10322440905   -0.04127288263    2.00000000000
     -8.41291074714    0.00000833428   -2.12731743682    2.00000000000
      0.00000550943    8.41292459085   -2.12731743682    2.00000000000
      8.41292176600    0.00000833428   -2.12731743682    2.00000000000
      0.00000550943   -8.41290792229   -2.12731743682    2.00000000000
     -6.30967987125    4.20646709975   -4.23909984007    2.00000000000
     -4.20645080711    6.30969616389   -4.23909984007    2.00000000000
      4.20646544946    6.30969616389   -4.23909984007    2.00000000000
      6.30969451360    4.20646709975   -4.23909984007    2.00000000000
      6.30969451360   -4.20644915682   -4.23909984007    2.00000000000
      4.20646544946   -6.30967822096   -4.23909984007    2.00000000000
     -4.20645080711   -6.30967822096   -4.23909984007    2.00000000000
     -6.30967987125   -4.20644915682   -4.23909984007    2.00000000000
     -4.20645080711    4.20646709975   -6.34232890421    2.00000000000
      4.20646544946    4.20646709975   -6.34232890421    2.00000000000
      4.20646544946   -4.20644915682   -6.34232890421    2.00000000000
     -4.20645080711   -4.20644915682   -6.34232890421    2.00000000000
     -2.10322174297    0.00000897147   -8.44555796836    2.00000000000
      0.00000732117    2.10323803561   -8.44555796836    2.00000000000
      2.10323638531    0.00000897147   -8.44555796836    2.00000000000
      0.00000732117   -2.10322009268   -8.44555796836    2.00000000000
     -6.30968726625    6.30969062527   -0.00000184672   -2.00000000000
      6.30968711860    6.30969062527   -0.00000184672   -2.00000000000
      6.30968711860   -6.30968375958   -0.00000184672   -2.00000000000
     -6.30968726625   -6.30968375958   -0.00000184672   -2.00000000000
     -8.41291528259    2.10323217703   -2.13226748721   -2.00000000000
     -2.10322637832    8.41291639312   -2.13228003377   -2.00000000000
      2.10323174996    8.41291639312   -2.13228003377   -2.00000000000
      8.41291723054    2.10323217703   -2.13226748721   -2.00000000000
      8.41291723054   -2.10322595126   -2.13226748721   -2.00000000000
      2.10323174996   -8.41291612001   -2.13228003377   -2.00000000000
     -2.10322637832   -8.41291612001   -2.13228003377   -2.00000000000
     -8.41291528259   -2.10322595126   -2.13226748721   -2.00000000000
     -6.30967987125    0.00000897147   -6.34232890421   -2.00000000000
      0.00000732117    6.30969616389   -6.34232890421   -2.00000000000
      6.30969451360    0.00000897147   -6.34232890421   -2.00000000000
      0.00000732117   -6.30967822096   -6.34232890421   -2.00000000000
     -2.10322174297    2.10323803561   -8.44555796836   -2.00000000000
      2.10323638531    2.10323803561   -8.44555796836   -2.00000000000
      2.10323638531   -2.10322009268   -8.44555796836   -2.00000000000
     -2.10322174297   -2.10322009268   -8.44555796836   -2.00000000000
     -6.30968160290    6.30969517152   -2.12732261718    2.00000000000
      6.30969278195    6.30969517152   -2.12732261718    2.00000000000
      6.30969278195   -6.30967921333   -2.12732261718    2.00000000000
     -6.30968160290   -6.30967921333   -2.12732261718    2.00000000000
     -6.30967987125    2.10323803561   -6.34232890421    2.00000000000
     -2.10322174297    6.30969616389   -6.34232890421    2.00000000000
      2.10323638531    6.30969616389   -6.34232890421    2.00000000000
      6.30969451360    2.10323803561   -6.34232890421    2.00000000000
      6.30969451360   -2.10322009268   -6.34232890421    2.00000000000
      2.10323638531   -6.30967822096   -6.34232890421    2.00000000000
     -2.10322174297   -6.30967822096   -6.34232890421    2.00000000000
     -6.30967987125   -2.10322009268   -6.34232890421    2.00000000000
     -8.41291625657    4.20645812828    0.00000000000   -2.00000000000
     -4.20645812828    8.41291625657    0.00000000000   -2.00000000000
      4.20645812828    8.41291625657    0.00000000000   -2.00000000000
      8.41291625657    4.20645812828    0.00000000000   -2.00000000000
      8.41291625657   -4.20645812828    0.00000000000   -2.00000000000
      4.20645812828   -8.41291625657    0.00000000000   -2.00000000000
     -4.20645812828   -8.41291625657    0.00000000000   -2.00000000000
     -8.41291625657   -4.20645812828    0.00000000000   -2.00000000000
     -8.41290893540    0.00000897147   -4.23909984007   -2.00000000000
      0.00000732117    8.41292522803   -4.23909984007   -2.00000000000
      8.41292357774    0.00000897147   -4.23909984007   -2.00000000000
      0.00000732117   -8.41290728510   -4.23909984007   -2.00000000000
     -4.20645080711    0.00000897147   -8.44555796836   -2.00000000000
      0.00000732117    4.20646709975   -8.44555796836   -2.00000000000
      4.20646544946    0.00000897147   -8.44555796836   -2.00000000000
      0.00000732117   -4.20644915682   -8.44555796836   -2.00000000000
     -8.41291074714    4.20646646256   -2.12731743682    2.00000000000
     -4.20645261886    8.41292459085   -2.12731743682    2.00000000000
      4.20646363771    8.41292459085   -2.12731743682    2.00000000000
      8.41292176600    4.20646646256   -2.12731743682    2.00000000000
      8.41292176600   -4.20644979401   -2.12731743682    2.00000000000
      4.20646363771   -8.41290792229   -2.12731743682    2.00000000000
     -4.20645261886   -8.41290792229   -2.12731743682    2.00000000000
     -8.41291074714   -4.20644979401   -2.12731743682    2.00000000000
     -8.41290893540    2.10323803561   -4.23909984007    2.00000000000
     -2.10322174297    8.41292522803   -4.23909984007    2.00000000000
      2.10323638531    8.41292522803   -4.23909984007    2.00000000000
      8.41292357774    2.10323803561   -4.23909984007    2.00000000000
      8.41292357774   -2.10322009268   -4.23909984007    2.00000000000
      2.10323638531   -8.41290728510   -4.23909984007    2.00000000000
     -2.10322174297   -8.41290728510   -4.23909984007    2.00000000000
     -8.41290893540   -2.10322009268   -4.23909984007    2.00000000000
     -4.20645080711    2.10323803561   -8.44555796836    2.00000000000
     -2.10322174297    4.20646709975   -8.44555796836    2.00000000000
      2.10323638531    4.20646709975   -8.44555796836    2.00000000000
      4.20646544946    2.10323803561   -8.44555796836    2.00000000000
      4.20646544946   -2.10322009268   -8.44555796836    2.00000000000
      2.10323638531   -4.20644915682   -8.44555796836    2.00000000000
     -2.10322174297   -4.20644915682   -8.44555796836    2.00000000000
     -4.20645080711   -2.10322009268   -8.44555796836    2.00000000000
    -10.51614246535    0.00000373010   -0.04129472389    2.00000000000
     -0.00000077520   10.51614997580   -0.04127288263    2.00000000000
     10.51614817607    0.00000373010   -0.04129472389    2.00000000000
     -0.00000077520  -10.51614066562   -0.04127288263    2.00000000000
      0.00000732117    0.00000897147  -10.54878703250    2.00000000000
    -10.51614539454    2.10323249699   -0.00000184672   -2.00000000000
     -2.10322913797   10.51614875355   -0.00000184672   -2.00000000000
      2.10322899032   10.51614875355   -0.00000184672   -2.00000000000
     10.51614524688    2.10323249699   -0.00000184672   -2.00000000000
     10.51614524688   -2.10322563130   -0.00000184672   -2.00000000000
      2.10322899032  -10.51614188787   -0.00000184672   -2.00000000000
     -2.10322913797  -10.51614188787   -0.00000184672   -2.00000000000
    -10.51614539454   -2.10322563130   -0.00000184672   -2.00000000000
    -10.51614263489    0.00000013655   -2.13228003377   -2.00000000000
      0.00000097398   10.51614843360   -2.13226748721   -2.00000000000
     10.51614800653    0.00000013655   -2.13228003377   -2.00000000000
      0.00000097398  -10.51614220782   -2.13226748721   -2.00000000000
     -2.10322174297    0.00000897147  -10.54878703250   -2.00000000000
      0.00000732117    2.10323803561  -10.54878703250   -2.00000000000
      2.10323638531    0.00000897147  -10.54878703250   -2.00000000000
      0.00000732117   -2.10322009268  -10.54878703250   -2.00000000000
    -10.51613973119    2.10323704324   -2.12732261718    2.00000000000
     -2.10322347462   10.51615329981   -2.12732261718    2.00000000000
      2.10323465367   10.51615329981   -2.12732261718    2.00000000000
     10.51615091024    2.10323704324   -2.12732261718    2.00000000000
     10.51615091024   -2.10322108505   -2.12732261718    2.00000000000
      2.10323465367  -10.51613734162   -2.12732261718    2.00000000000
     -2.10322347462  -10.51613734162   -2.12732261718    2.00000000000
    -10.51613973119   -2.10322108505   -2.12732261718    2.00000000000
     -2.10322174297    2.10323803561  -10.54878703250    2.00000000000
      2.10323638531    2.10323803561  -10.54878703250    2.00000000000
      2.10323638531   -2.10322009268  -10.54878703250    2.00000000000
     -2.10322174297   -2.10322009268  -10.54878703250    2.00000000000
     -6.30967987125    6.30969616389   -4.23909984007   -2.00000000000
      6.30969451360    6.30969616389   -4.23909984007   -2.00000000000
      6.30969451360   -6.30967822096   -4.23909984007   -2.00000000000
     -6.30967987125   -6.30967822096   -4.23909984007   -2.00000000000
     -6.30967987125    4.20646709975   -6.34232890421   -2.00000000000
     -4.20645080711    6.30969616389   -6.34232890421   -2.00000000000
      4.20646544946    6.30969616389   -6.34232890421   -2.00000000000
      6.30969451360    4.20646709975   -6.34232890421   -2.00000000000
      6.30969451360   -4.20644915682   -6.34232890421   -2.00000000000
      4.20646544946   -6.30967822096   -6.34232890421   -2.00000000000
     -4.20645080711   -6.30967822096   -6.34232890421   -2.00000000000
     -6.30967987125   -4.20644915682   -6.34232890421   -2.00000000000
     -8.41290893540    4.20646709975   -4.23909984007   -2.00000000000
     -4.20645080711    8.41292522803   -4.23909984007   -2.00000000000
      4.20646544946    8.41292522803   -4.23909984007   -2.00000000000
      8.41292357774    4.20646709975   -4.23909984007   -2.00000000000
      8.41292357774   -4.20644915682   -4.23909984007   -2.00000000000
      4.20646544946   -8.41290728510   -4.23909984007   -2.00000000000
     -4.20645080711   -8.41290728510   -4.23909984007   -2.00000000000
     -8.41290893540   -4.20644915682   -4.23909984007   -2.00000000000
     -4.20645080711    4.20646709975   -8.44555796836   -2.00000000000
      4.20646544946    4.20646709975   -8.44555796836   -2.00000000000
      4.20646544946   -4.20644915682   -8.44555796836   -2.00000000000
     -4.20645080711   -4.20644915682   -8.44555796836   -2.00000000000
     -8.41291703177    6.30969184751   -0.04127288263    2.00000000000
     -6.30968433707    8.41291998667   -0.04129472389    2.00000000000
      6.30969004779    8.41291998667   -0.04129472389    2.00000000000
      8.41291548137    6.30969184751   -0.04127288263    2.00000000000
      8.41291548137   -6.30968253734   -0.04127288263    2.00000000000
      6.30969004779   -8.41291252647   -0.04129472389    2.00000000000
     -6.30968433707   -8.41291252647   -0.04129472389    2.00000000000
     -8.41291703177   -6.30968253734   -0.04127288263    2.00000000000
     -8.41290893540    0.00000897147   -6.34232890421    2.00000000000
      0.00000732117    8.41292522803   -6.34232890421    2.00000000000
      8.41292357774    0.00000897147   -6.34232890421    2.00000000000
      0.00000732117   -8.41290728510   -6.34232890421    2.00000000000
     -6.30967987125    0.00000897147   -8.44555796836    2.00000000000
      0.00000732117    6.30969616389   -8.44555796836    2.00000000000
      6.30969451360    0.00000897147   -8.44555796836    2.00000000000
      0.00000732117   -6.30967822096   -8.44555796836    2.00000000000
     -8.41291528259    6.30969030531   -2.13226748721   -2.00000000000
     -6.30968450660    8.41291639312   -2.13228003377   -2.00000000000
      6.30968987825    8.41291639312   -2.13228003377   -2.00000000000
      8.41291723054    6.30969030531   -2.13226748721   -2.00000000000
      8.41291723054   -6.30968407954   -2.13226748721   -2.00000000000
      6.30968987825   -8.41291612001   -2.13228003377   -2.00000000000
     -6.30968450660   -8.41291612001   -2.13228003377   -2.00000000000
     -8.41291528259   -6.30968407954   -2.13226748721   -2.00000000000
     -8.41290893540    2.10323803561   -6.34232890421   -2.00000000000
     -2.10322174297    8.41292522803   -6.34232890421   -2.00000000000
      2.10323638531    8.41292522803   -6.34232890421   -2.00000000000
      8.41292357774    2.10323803561   -6.34232890421   -2.00000000000
      8.41292357774   -2.10322009268   -6.34232890421   -2.00000000000
      2.10323638531   -8.41290728510   -6.34232890421   -2.00000000000
     -2.10322174297   -8.41290728510   -6.34232890421   -2.00000000000
     -8.41290893540   -2.10322009268   -6.34232890421   -2.00000000000
     -6.30967987125    2.10323803561   -8.44555796836   -2.00000000000
     -2.10322174297    6.30969616389   -8.44555796836   -2.00000000000
      2.10323638531    6.30969616389   -8.44555796836   -2.00000000000
      6.30969451360    2.10323803561   -8.44555796836   -2.00000000000
      6.30969451360   -2.10322009268   -8.44555796836   -2.00000000000
      2.10323638531   -6.30967822096   -8.44555796836   -2.00000000000
     -2.10322174297   -6.30967822096   -8.44555796836   -2.00000000000
     -6.30967987125   -2.10322009268   -8.44555796836   -2.00000000000
     -6.30967987125    6.30969616389   -6.34232890421    2.00000000000
      6.30969451360    6.30969616389   -6.34232890421    2.00000000000
      6.30969451360   -6.30967822096   -6.34232890421    2.00000000000
     -6.30967987125   -6.30967822096   -6.34232890421    2.00000000000
    -10.51614246535    4.20646185838   -0.04129472389    2.00000000000
     -4.20645890349   10.51614997580   -0.04127288263    2.00000000000
      4.20645735308   10.51614997580   -0.04127288263    2.00000000000
     10.51614817607    4.20646185838   -0.04129472389    2.00000000000
     10.51614817607   -4.20645439819   -0.04129472389    2.00000000000
      4.20645735308  -10.51614066562   -0.04127288263    2.00000000000
     -4.20645890349  -10.51614066562   -0.04127288263    2.00000000000
    -10.51614246535   -4.20645439819   -0.04129472389    2.00000000000
    -10.51613799954    0.00000897147   -4.23909984007    2.00000000000
     -8.41290893540    6.30969616389   -4.23909984007    2.00000000000
     -6.30967987125    8.41292522803   -4.23909984007    2.00000000000
      0.00000732117   10.51615429218   -4.23909984007    2.00000000000
      6.30969451360    8.41292522803   -4.23909984007    2.00000000000
      8.41292357774    6.30969616389   -4.23909984007    2.00000000000
     10.51615264188    0.00000897147   -4.23909984007    2.00000000000
      8.41292357774   -6.30967822096   -4.23909984007    2.00000000000
      6.30969451360   -8.41290728510   -4.23909984007    2.00000000000
      0.00000732117  -10.51613634924   -4.23909984007    2.00000000000
     -6.30967987125   -8.41290728510   -4.23909984007    2.00000000000
     -8.41290893540   -6.30967822096   -4.23909984007    2.00000000000
     -8.41290893540    4.20646709975   -6.34232890421    2.00000000000
     -4.20645080711    8.41292522803   -6.34232890421    2.00000000000
      4.20646544946    8.41292522803   -6.34232890421    2.00000000000
      8.41292357774    4.20646709975   -6.34232890421    2.00000000000
      8.41292357774   -4.20644915682   -6.34232890421    2.00000000000
      4.20646544946   -8.41290728510   -6.34232890421    2.00000000000
     -4.20645080711   -8.41290728510   -6.34232890421    2.00000000000
     -8.41290893540   -4.20644915682   -6.34232890421    2.00000000000
     -6.30967987125    4.20646709975   -8.44555796836    2.00000000000
     -4.20645080711    6.30969616389   -8.44555796836    2.00000000000
      4.20646544946    6.30969616389   -8.44555796836    2.00000000000
      6.30969451360    4.20646709975   -8.44555796836    2.00000000000
      6.30969451360   -4.20644915682   -8.44555796836    2.00000000000
      4.20646544946   -6.30967822096   -8.44555796836    2.00000000000
     -4.20645080711   -6.30967822096   -8.44555796836    2.00000000000
     -6.30967987125   -4.20644915682   -8.44555796836    2.00000000000
     -4.20645080711    0.00000897147  -10.54878703250    2.00000000000
      0.00000732117    4.20646709975  -10.54878703250    2.00000000000
      4.20646544946    0.00000897147  -10.54878703250    2.00000000000
      0.00000732117   -4.20644915682  -10.54878703250    2.00000000000
    -10.51614263489    4.20645826484   -2.13228003377   -2.00000000000
     -4.20645715431   10.51614843360   -2.13226748721   -2.00000000000
      4.20645910226   10.51614843360   -2.13226748721   -2.00000000000
     10.51614800653    4.20645826484   -2.13228003377   -2.00000000000
     10.51614800653   -4.20645799173   -2.13228003377   -2.00000000000
      4.20645910226  -10.51614220782   -2.13226748721   -2.00000000000
     -4.20645715431  -10.51614220782   -2.13226748721   -2.00000000000
    -10.51614263489   -4.20645799173   -2.13228003377   -2.00000000000
    -10.51613799954    2.10323803561   -4.23909984007   -2.00000000000
     -2.10322174297   10.51615429218   -4.23909984007   -2.00000000000
      2.10323638531   10.51615429218   -4.23909984007   -2.00000000000
     10.51615264188    2.10323803561   -4.23909984007   -2.00000000000
     10.51615264188   -2.10322009268   -4.23909984007   -2.00000000000
      2.10323638531  -10.51613634924   -4.23909984007   -2.00000000000
     -2.10322174297  -10.51613634924   -4.23909984007   -2.00000000000
    -10.51613799954   -2.10322009268   -4.23909984007   -2.00000000000
     -4.20645080711    2.10323803561  -10.54878703250   -2.00000000000
     -2.10322174297    4.20646709975  -10.54878703250   -2.00000000000
      2.10323638531    4.20646709975  -10.54878703250   -2.00000000000
      4.20646544946    2.10323803561  -10.54878703250   -2.00000000000
      4.20646544946   -2.10322009268  -10.54878703250   -2.00000000000
      2.10323638531   -4.20644915682  -10.54878703250   -2.00000000000
     -2.10322174297   -4.20644915682  -10.54878703250   -2.00000000000
     -4.20645080711   -2.10322009268  -10.54878703250   -2.00000000000
     -8.41291625657    8.41291625657    0.00000000000   -2.00000000000
      8.41291625657    8.41291625657    0.00000000000   -2.00000000000
      8.41291625657   -8.41291625657    0.00000000000   -2.00000000000
     -8.41291625657   -8.41291625657    0.00000000000   -2.00000000000
     -8.41290893540    0.00000897147   -8.44555796836   -2.00000000000
      0.00000732117    8.41292522803   -8.44555796836   -2.00000000000
      8.41292357774    0.00000897147   -8.44555796836   -2.00000000000
      0.00000732117   -8.41290728510   -8.44555796836   -2.00000000000
     -8.41291074714    8.41292459085   -2.12731743682    2.00000000000
      8.41292176600    8.41292459085   -2.12731743682    2.00000000000
      8.41292176600   -8.41290792229   -2.12731743682    2.00000000000
     -8.41291074714   -8.41290792229   -2.12731743682    2.00000000000
    -10.51613799954    4.20646709975   -4.23909984007    2.00000000000
     -4.20645080711   10.51615429218   -4.23909984007    2.00000000000
      4.20646544946   10.51615429218   -4.23909984007    2.00000000000
     10.51615264188    4.20646709975   -4.23909984007    2.00000000000
     10.51615264188   -4.20644915682   -4.23909984007    2.00000000000
      4.20646544946  -10.51613634924   -4.23909984007    2.00000000000
     -4.20645080711  -10.51613634924   -4.23909984007    2.00000000000
    -10.51613799954   -4.20644915682   -4.23909984007    2.00000000000
     -8.41290893540    2.10323803561   -8.44555796836    2.00000000000
     -2.10322174297    8.41292522803   -8.44555796836    2.00000000000
      2.10323638531    8.41292522803   -8.44555796836    2.00000000000
      8.41292357774    2.10323803561   -8.44555796836    2.00000000000
      8.41292357774   -2.10322009268   -8.44555796836    2.00000000000
      2.10323638531   -8.41290728510   -8.44555796836    2.00000000000
     -2.10322174297   -8.41290728510   -8.44555796836    2.00000000000
     -8.41290893540   -2.10322009268   -8.44555796836    2.00000000000
     -4.20645080711    4.20646709975  -10.54878703250    2.00000000000
      4.20646544946    4.20646709975  -10.54878703250    2.00000000000
      4.20646544946   -4.20644915682  -10.54878703250    2.00000000000
     -4.20645080711   -4.20644915682  -10.54878703250    2.00000000000
    -10.51614539454    6.30969062527   -0.00000184672   -2.00000000000
     -6.30968726625   10.51614875355   -0.00000184672   -2.00000000000
      6.30968711860   10.51614875355   -0.00000184672   -2.00000000000
     10.51614524688    6.30969062527   -0.00000184672   -2.00000000000
     10.51614524688   -6.30968375958   -0.00000184672   -2.00000000000
      6.30968711860  -10.51614188787   -0.00000184672   -2.00000000000
     -6.30968726625  -10.51614188787   -0.00000184672   -2.00000000000
    -10.51614539454   -6.30968375958   -0.00000184672   -2.00000000000
    -10.51613799954    0.00000897147   -6.34232890421   -2.00000000000
     -8.41290893540    6.30969616389   -6.34232890421   -2.00000000000
     -6.30967987125    8.41292522803   -6.34232890421   -2.00000000000
      0.00000732117   10.51615429218   -6.34232890421   -2.00000000000
      6.30969451360    8.41292522803   -6.34232890421   -2.00000000000
      8.41292357774    6.30969616389   -6.34232890421   -2.00000000000
     10.51615264188    0.00000897147   -6.34232890421   -2.00000000000
      8.41292357774   -6.30967822096   -6.34232890421   -2.00000000000
      6.30969451360   -8.41290728510   -6.34232890421   -2.00000000000
      0.00000732117  -10.51613634924   -6.34232890421   -2.00000000000
     -6.30967987125   -8.41290728510   -6.34232890421   -2.00000000000
     -8.41290893540   -6.30967822096   -6.34232890421   -2.00000000000
     -6.30967987125    6.30969616389   -8.44555796836   -2.00000000000
      6.30969451360    6.30969616389   -8.44555796836   -2.00000000000
      6.30969451360   -6.30967822096   -8.44555796836   -2.00000000000
     -6.30967987125   -6.30967822096   -8.44555796836   -2.00000000000
     -6.30967987125    0.00000897147  -10.54878703250   -2.00000000000
      0.00000732117    6.30969616389  -10.54878703250   -2.00000000000
      6.30969451360    0.00000897147  -10.54878703250   -2.00000000000
      0.00000732117   -6.30967822096  -10.54878703250   -2.00000000000
    -10.51613973119    6.30969517152   -2.12732261718    2.00000000000
     -6.30968160290   10.51615329981   -2.12732261718    2.00000000000
      6.30969278195   10.51615329981   -2.12732261718    2.00000000000
     10.51615091024    6.30969517152   -2.12732261718    2.00000000000
     10.51615091024   -6.30967921333   -2.12732261718    2.00000000000
      6.30969278195  -10.51613734162   -2.12732261718    2.00000000000
     -6.30968160290  -10.51613734162   -2.12732261718    2.00000000000
    -10.51613973119   -6.30967921333   -2.12732261718    2.00000000000
    -10.51613799954    2.10323803561   -6.34232890421    2.00000000000
     -2.10322174297   10.51615429218   -6.34232890421    2.00000000000
      2.10323638531   10.51615429218   -6.34232890421    2.00000000000
     10.51615264188    2.10323803561   -6.34232890421    2.00000000000
     10.51615264188   -2.10322009268   -6.34232890421    2.00000000000
      2.10323638531  -10.51613634924   -6.34232890421    2.00000000000
     -2.10322174297  -10.51613634924   -6.34232890421    2.00000000000
    -10.51613799954   -2.10322009268   -6.34232890421    2.00000000000
     -6.30967987125    2.10323803561  -10.54878703250    2.00000000000
     -2.10322174297    6.30969616389  -10.54878703250    2.00000000000
      2.10323638531    6.30969616389  -10.54878703250    2.00000000000
      6.30969451360    2.10323803561  -10.54878703250    2.00000000000
      6.30969451360   -2.10322009268  -10.54878703250    2.00000000000
      2.10323638531   -6.30967822096  -10.54878703250    2.00000000000
     -2.10322174297   -6.30967822096  -10.54878703250    2.00000000000
     -6.30967987125   -2.10322009268  -10.54878703250    2.00000000000
    -12.61937438485    0.00000000000    0.00000000000   -2.00000000000
      0.00000000000   12.61937438485    0.00000000000   -2.00000000000
     12.61937438485    0.00000000000    0.00000000000   -2.00000000000
      0.00000000000  -12.61937438485    0.00000000000   -2.00000000000
     -8.41290893540    8.41292522803   -4.23909984007   -2.00000000000
      8.41292357774    8.41292522803   -4.23909984007   -2.00000000000
      8.41292357774   -8.41290728510   -4.23909984007   -2.00000000000
     -8.41290893540   -8.41290728510   -4.23909984007   -2.00000000000
     -8.41290893540    4.20646709975   -8.44555796836   -2.00000000000
     -4.20645080711    8.41292522803   -8.44555796836   -2.00000000000
      4.20646544946    8.41292522803   -8.44555796836   -2.00000000000
      8.41292357774    4.20646709975   -8.44555796836   -2.00000000000
      8.41292357774   -4.20644915682   -8.44555796836   -2.00000000000
      4.20646544946   -8.41290728510   -8.44555796836   -2.00000000000
     -4.20645080711   -8.41290728510   -8.44555796836   -2.00000000000
     -8.41290893540   -4.20644915682   -8.44555796836   -2.00000000000
      0.00000732117    0.00000897147  -12.65201609664   -2.00000000000
    -12.61937516006    2.10323371923   -0.04127288263    2.00000000000
     -2.10322620878   12.61937811495   -0.04129472389    2.00000000000
      2.10323191950   12.61937811495   -0.04129472389    2.00000000000
     12.61937360965    2.10323371923   -0.04127288263    2.00000000000
     12.61937360965   -2.10322440905   -0.04127288263    2.00000000000
      2.10323191950  -12.61937065476   -0.04129472389    2.00000000000
     -2.10322620878  -12.61937065476   -0.04129472389    2.00000000000
    -12.61937516006   -2.10322440905   -0.04127288263    2.00000000000
    -12.61936887543    0.00000833428   -2.12731743682    2.00000000000
      0.00000550943   12.61938271913   -2.12731743682    2.00000000000
     12.61937989428    0.00000833428   -2.12731743682    2.00000000000
      0.00000550943  -12.61936605057   -2.12731743682    2.00000000000
     -2.10322174297    0.00000897147  -12.65201609664    2.00000000000
      0.00000732117    2.10323803561  -12.65201609664    2.00000000000
      2.10323638531    0.00000897147  -12.65201609664    2.00000000000
      0.00000732117   -2.10322009268  -12.65201609664    2.00000000000
    -12.61937341088    2.10323217703   -2.13226748721   -2.00000000000
     -2.10322637832   12.61937452141   -2.13228003377   -2.00000000000
      2.10323174996   12.61937452141   -2.13228003377   -2.00000000000
     12.61937535883    2.10323217703   -2.13226748721   -2.00000000000
     12.61937535883   -2.10322595126   -2.13226748721   -2.00000000000
      2.10323174996  -12.61937424830   -2.13228003377   -2.00000000000
     -2.10322637832  -12.61937424830   -2.13228003377   -2.00000000000
    -12.61937341088   -2.10322595126   -2.13226748721   -2.00000000000
    -10.51613799954    6.30969616389   -4.23909984007   -2.00000000000
     -6.30967987125   10.51615429218   -4.23909984007   -2.00000000000
      6.30969451360   10.51615429218   -4.23909984007   -2.00000000000
     10.51615264188    6.30969616389   -4.23909984007   -2.00000000000
     10.51615264188   -6.30967822096   -4.23909984007   -2.00000000000
      6.30969451360  -10.51613634924   -4.23909984007   -2.00000000000
     -6.30967987125  -10.51613634924   -4.23909984007   -2.00000000000
    -10.51613799954   -6.30967822096   -4.23909984007   -2.00000000000
    -10.51613799954    4.20646709975   -6.34232890421   -2.00000000000
     -4.20645080711   10.51615429218   -6.34232890421   -2.00000000000
      4.20646544946   10.51615429218   -6.34232890421   -2.00000000000
     10.51615264188    4.20646709975   -6.34232890421   -2.00000000000
     10.51615264188   -4.20644915682   -6.34232890421   -2.00000000000
      4.20646544946  -10.51613634924   -6.34232890421   -2.00000000000
     -4.20645080711  -10.51613634924   -6.34232890421   -2.00000000000
    -10.51613799954   -4.20644915682   -6.34232890421   -2.00000000000
     -6.30967987125    4.20646709975  -10.54878703250   -2.00000000000
     -4.20645080711    6.30969616389  -10.54878703250   -2.00000000000
      4.20646544946    6.30969616389  -10.54878703250   -2.00000000000
      6.30969451360    4.20646709975  -10.54878703250   -2.00000000000
      6.30969451360   -4.20644915682  -10.54878703250   -2.00000000000
      4.20646544946   -6.30967822096  -10.54878703250   -2.00000000000
     -4.20645080711   -6.30967822096  -10.54878703250   -2.00000000000
     -6.30967987125   -4.20644915682  -10.54878703250   -2.00000000000
     -2.10322174297    2.10323803561  -12.65201609664   -2.00000000000
      2.10323638531    2.10323803561  -12.65201609664   -2.00000000000
      2.10323638531   -2.10322009268  -12.65201609664   -2.00000000000
     -2.10322174297   -2.10322009268  -12.65201609664   -2.00000000000
    -12.61937438485    4.20645812828    0.00000000000   -2.00000000000
     -4.20645812828   12.61937438485    0.00000000000   -2.00000000000
      4.20645812828   12.61937438485    0.00000000000   -2.00000000000
     12.61937438485    4.20645812828    0.00000000000   -2.00000000000
     12.61937438485   -4.20645812828    0.00000000000   -2.00000000000
      4.20645812828  -12.61937438485    0.00000000000   -2.00000000000
     -4.20645812828  -12.61937438485    0.00000000000   -2.00000000000
    -12.61937438485   -4.20645812828    0.00000000000   -2.00000000000
    -12.61936706368    0.00000897147   -4.23909984007   -2.00000000000
      0.00000732117   12.61938335632   -4.23909984007   -2.00000000000
     12.61938170602    0.00000897147   -4.23909984007   -2.00000000000
      0.00000732117  -12.61936541339   -4.23909984007   -2.00000000000
     -4.20645080711    0.00000897147  -12.65201609664   -2.00000000000
      0.00000732117    4.20646709975  -12.65201609664   -2.00000000000
      4.20646544946    0.00000897147  -12.65201609664   -2.00000000000
      0.00000732117   -4.20644915682  -12.65201609664   -2.00000000000
    -10.51614246535    8.41291998667   -0.04129472389    2.00000000000
     -8.41291703177   10.51614997580   -0.04127288263    2.00000000000
      8.41291548137   10.51614997580   -0.04127288263    2.00000000000
     10.51614817607    8.41291998667   -0.04129472389    2.00000000000
     10.51614817607   -8.41291252647   -0.04129472389    2.00000000000
      8.41291548137  -10.51614066562   -0.04127288263    2.00000000000
     -8.41291703177  -10.51614066562   -0.04127288263    2.00000000000
    -10.51614246535   -8.41291252647   -0.04129472389    2.00000000000
    -12.61936887543    4.20646646256   -2.12731743682    2.00000000000
     -4.20645261886   12.61938271913   -2.12731743682    2.00000000000
      4.20646363771   12.61938271913   -2.12731743682    2.00000000000
     12.61937989428    4.20646646256   -2.12731743682    2.00000000000
     12.61937989428   -4.20644979401   -2.12731743682    2.00000000000
      4.20646363771  -12.61936605057   -2.12731743682    2.00000000000
     -4.20645261886  -12.61936605057   -2.12731743682    2.00000000000
    -12.61936887543   -4.20644979401   -2.12731743682    2.00000000000
    -12.61936706368    2.10323803561   -4.23909984007    2.00000000000
     -2.10322174297   12.61938335632   -4.23909984007    2.00000000000
      2.10323638531   12.61938335632   -4.23909984007    2.00000000000
     12.61938170602    2.10323803561   -4.23909984007    2.00000000000
     12.61938170602   -2.10322009268   -4.23909984007    2.00000000000
      2.10323638531  -12.61936541339   -4.23909984007    2.00000000000
     -2.10322174297  -12.61936541339   -4.23909984007    2.00000000000
    -12.61936706368   -2.10322009268   -4.23909984007    2.00000000000
     -8.41290893540    8.41292522803   -6.34232890421    2.00000000000
      8.41292357774    8.41292522803   -6.34232890421    2.00000000000
      8.41292357774   -8.41290728510   -6.34232890421    2.00000000000
     -8.41290893540   -8.41290728510   -6.34232890421    2.00000000000
    -10.51613799954    0.00000897147   -8.44555796836    2.00000000000
     -8.41290893540    6.30969616389   -8.44555796836    2.00000000000
     -6.30967987125    8.41292522803   -8.44555796836    2.00000000000
      0.00000732117   10.51615429218   -8.44555796836    2.00000000000
      6.30969451360    8.41292522803   -8.44555796836    2.00000000000
      8.41292357774    6.30969616389   -8.44555796836    2.00000000000
     10.51615264188    0.00000897147   -8.44555796836    2.00000000000
      8.41292357774   -6.30967822096   -8.44555796836    2.00000000000
      6.30969451360   -8.41290728510   -8.44555796836    2.00000000000
      0.00000732117  -10.51613634924   -8.44555796836    2.00000000000
     -6.30967987125   -8.41290728510   -8.44555796836    2.00000000000
     -8.41290893540   -6.30967822096   -8.44555796836    2.00000000000
     -8.41290893540    0.00000897147  -10.54878703250    2.00000000000
      0.00000732117    8.41292522803  -10.54878703250    2.00000000000
      8.41292357774    0.00000897147  -10.54878703250    2.00000000000
      0.00000732117   -8.41290728510  -10.54878703250    2.00000000000
     -4.20645080711    2.10323803561  -12.65201609664    2.00000000000
     -2.10322174297    4.20646709975  -12.65201609664    2.00000000000
      2.10323638531    4.20646709975  -12.65201609664    2.00000000000
      4.20646544946    2.10323803561  -12.65201609664    2.00000000000
      4.20646544946   -2.10322009268  -12.65201609664    2.00000000000
      2.10323638531   -4.20644915682  -12.65201609664    2.00000000000
     -2.10322174297   -4.20644915682  -12.65201609664    2.00000000000
     -4.20645080711   -2.10322009268  -12.65201609664    2.00000000000
    -10.51614263489    8.41291639312   -2.13228003377   -2.00000000000
     -8.41291528259   10.51614843360   -2.13226748721   -2.00000000000
      8.41291723054   10.51614843360   -2.13226748721   -2.00000000000
     10.51614800653    8.41291639312   -2.13228003377   -2.00000000000
     10.51614800653   -8.41291612001   -2.13228003377   -2.00000000000
      8.41291723054  -10.51614220782   -2.13226748721   -2.00000000000
     -8.41291528259  -10.51614220782   -2.13226748721   -2.00000000000
    -10.51614263489   -8.41291612001   -2.13228003377   -2.00000000000
    -10.51613799954    2.10323803561   -8.44555796836   -2.00000000000
     -2.10322174297   10.51615429218   -8.44555796836   -2.00000000000
      2.10323638531   10.51615429218   -8.44555796836   -2.00000000000
     10.51615264188    2.10323803561   -8.44555796836   -2.00000000000
     10.51615264188   -2.10322009268   -8.44555796836   -2.00000000000
      2.10323638531  -10.51613634924   -8.44555796836   -2.00000000000
     -2.10322174297  -10.51613634924   -8.44555796836   -2.00000000000
    -10.51613799954   -2.10322009268   -8.44555796836   -2.00000000000
     -8.41290893540    2.10323803561  -10.54878703250   -2.00000000000
     -2.10322174297    8.41292522803  -10.54878703250   -2.00000000000
      2.10323638531    8.41292522803  -10.54878703250   -2.00000000000
      8.41292357774    2.10323803561  -10.54878703250   -2.00000000000
      8.41292357774   -2.10322009268  -10.54878703250   -2.00000000000
      2.10323638531   -8.41290728510  -10.54878703250   -2.00000000000
     -2.10322174297   -8.41290728510  -10.54878703250   -2.00000000000
     -8.41290893540   -2.10322009268  -10.54878703250   -2.00000000000
    -10.51613799954    6.30969616389   -6.34232890421    2.00000000000
     -6.30967987125   10.51615429218   -6.34232890421    2.00000000000
      6.30969451360   10.51615429218   -6.34232890421    2.00000000000
     10.51615264188    6.30969616389   -6.34232890421    2.00000000000
     10.51615264188   -6.30967822096   -6.34232890421    2.00000000000
      6.30969451360  -10.51613634924   -6.34232890421    2.00000000000
     -6.30967987125  -10.51613634924   -6.34232890421    2.00000000000
    -10.51613799954   -6.30967822096   -6.34232890421    2.00000000000
     -6.30967987125    6.30969616389  -10.54878703250    2.00000000000
      6.30969451360    6.30969616389  -10.54878703250    2.00000000000
      6.30969451360   -6.30967822096  -10.54878703250    2.00000000000
     -6.30967987125   -6.30967822096  -10.54878703250    2.00000000000
    -12.61936706368    4.20646709975   -4.23909984007   -2.00000000000
     -4.20645080711   12.61938335632   -4.23909984007   -2.00000000000
      4.20646544946   12.61938335632   -4.23909984007   -2.00000000000
     12.61938170602    4.20646709975   -4.23909984007   -2.00000000000
     12.61938170602   -4.20644915682   -4.23909984007   -2.00000000000
      4.20646544946  -12.61936541339   -4.23909984007   -2.00000000000
     -4.20645080711  -12.61936541339   -4.23909984007   -2.00000000000
    -12.61936706368   -4.20644915682   -4.23909984007   -2.00000000000
     -4.20645080711    4.20646709975  -12.65201609664   -2.00000000000
      4.20646544946    4.20646709975  -12.65201609664   -2.00000000000
      4.20646544946   -4.20644915682  -12.65201609664   -2.00000000000
     -4.20645080711   -4.20644915682  -12.65201609664   -2.00000000000
    -12.61937516006    6.30969184751   -0.04127288263    2.00000000000
     -6.30968433707   12.61937811495   -0.04129472389    2.00000000000
      6.30969004779   12.61937811495   -0.04129472389    2.00000000000
     12.61937360965    6.30969184751   -0.04127288263    2.00000000000
     12.61937360965   -6.30968253734   -0.04127288263    2.00000000000
      6.30969004779  -12.61937065476   -0.04129472389    2.00000000000
     -6.30968433707  -12.61937065476   -0.04129472389    2.00000000000
    -12.61937516006   -6.30968253734   -0.04127288263    2.00000000000
    -10.51613799954    8.41292522803   -4.23909984007    2.00000000000
     -8.41290893540   10.51615429218   -4.23909984007    2.00000000000
      8.41292357774   10.51615429218   -4.23909984007    2.00000000000
     10.51615264188    8.41292522803   -4.23909984007    2.00000000000
     10.51615264188   -8.41290728510   -4.23909984007    2.00000000000
      8.41292357774  -10.51613634924   -4.23909984007    2.00000000000
     -8.41290893540  -10.51613634924   -4.23909984007    2.00000000000
    -10.51613799954   -8.41290728510   -4.23909984007    2.00000000000
    -12.61936706368    0.00000897147   -6.34232890421    2.00000000000
      0.00000732117   12.61938335632   -6.34232890421    2.00000000000
     12.61938170602    0.00000897147   -6.34232890421    2.00000000000
      0.00000732117  -12.61936541339   -6.34232890421    2.00000000000
    -10.51613799954    4.20646709975   -8.44555796836    2.00000000000
     -4.20645080711   10.51615429218   -8.44555796836    2.00000000000
      4.20646544946   10.51615429218   -8.44555796836    2.00000000000
     10.51615264188    4.20646709975   -8.44555796836    2.00000000000
     10.51615264188   -4.20644915682   -8.44555796836    2.00000000000
      4.20646544946  -10.51613634924   -8.44555796836    2.00000000000
     -4.20645080711  -10.51613634924   -8.44555796836    2.00000000000
    -10.51613799954   -4.20644915682   -8.44555796836    2.00000000000
     -8.41290893540    4.20646709975  -10.54878703250    2.00000000000
     -4.20645080711    8.41292522803  -10.54878703250    2.00000000000
      4.20646544946    8.41292522803  -10.54878703250    2.00000000000
      8.41292357774    4.20646709975  -10.54878703250    2.00000000000
      8.41292357774   -4.20644915682  -10.54878703250    2.00000000000
      4.20646544946   -8.41290728510  -10.54878703250    2.00000000000
     -4.20645080711   -8.41290728510  -10.54878703250    2.00000000000
     -8.41290893540   -4.20644915682  -10.54878703250    2.00000000000
     -6.30967987125    0.00000897147  -12.65201609664    2.00000000000
      0.00000732117    6.30969616389  -12.65201609664    2.00000000000
      6.30969451360    0.00000897147  -12.65201609664    2.00000000000
      0.00000732117   -6.30967822096  -12.65201609664    2.00000000000
    -12.61937341088    6.30969030531   -2.13226748721   -2.00000000000
     -6.30968450660   12.61937452141   -2.13228003377   -2.00000000000
      6.30968987825   12.61937452141   -2.13228003377   -2.00000000000
     12.61937535883    6.30969030531   -2.13226748721   -2.00000000000
     12.61937535883   -6.30968407954   -2.13226748721   -2.00000000000
      6.30968987825  -12.61937424830   -2.13228003377   -2.00000000000
     -6.30968450660  -12.61937424830   -2.13228003377   -2.00000000000
    -12.61937341088   -6.30968407954   -2.13226748721   -2.00000000000
    -12.61936706368    2.10323803561   -6.34232890421   -2.00000000000
     -2.10322174297   12.61938335632   -6.34232890421   -2.00000000000
      2.10323638531   12.61938335632   -6.34232890421   -2.00000000000
     12.61938170602    2.10323803561   -6.34232890421   -2.00000000000
     12.61938170602   -2.10322009268   -6.34232890421   -2.00000000000
      2.10323638531  -12.61936541339   -6.34232890421   -2.00000000000
     -2.10322174297  -12.61936541339   -6.34232890421   -2.00000000000
    -12.61936706368   -2.10322009268   -6.34232890421   -2.00000000000
     -6.30967987125    2.10323803561  -12.65201609664   -2.00000000000
     -2.10322174297    6.30969616389  -12.65201609664   -2.00000000000
      2.10323638531    6.30969616389  -12.65201609664   -2.00000000000
      6.30969451360    2.10323803561  -12.65201609664   -2.00000000000
      6.30969451360   -2.10322009268  -12.65201609664   -2.00000000000
      2.10323638531   -6.30967822096  -12.65201609664   -2.00000000000
     -2.10322174297   -6.30967822096  -12.65201609664   -2.00000000000
     -6.30967987125   -2.10322009268  -12.65201609664   -2.00000000000
     -8.41290893540    8.41292522803   -8.44555796836   -2.00000000000
      8.41292357774    8.41292522803   -8.44555796836   -2.00000000000
      8.41292357774   -8.41290728510   -8.44555796836   -2.00000000000
     -8.41290893540   -8.41290728510   -8.44555796836   -2.00000000000
    -14.72260059364    0.00000373010   -0.04129472389    2.00000000000
     -0.00000077520   14.72260810408   -0.04127288263    2.00000000000
     14.72260630435    0.00000373010   -0.04129472389    2.00000000000
     -0.00000077520  -14.72259879391   -0.04127288263    2.00000000000
    -12.61936706368    6.30969616389   -4.23909984007    2.00000000000
     -6.30967987125   12.61938335632   -4.23909984007    2.00000000000
      6.30969451360   12.61938335632   -4.23909984007    2.00000000000
     12.61938170602    6.30969616389   -4.23909984007    2.00000000000
     12.61938170602   -6.30967822096   -4.23909984007    2.00000000000
      6.30969451360  -12.61936541339   -4.23909984007    2.00000000000
     -6.30967987125  -12.61936541339   -4.23909984007    2.00000000000
    -12.61936706368   -6.30967822096   -4.23909984007    2.00000000000
    -12.61936706368    4.20646709975   -6.34232890421    2.00000000000
     -4.20645080711   12.61938335632   -6.34232890421    2.00000000000
      4.20646544946   12.61938335632   -6.34232890421    2.00000000000
     12.61938170602    4.20646709975   -6.34232890421    2.00000000000
     12.61938170602   -4.20644915682   -6.34232890421    2.00000000000
      4.20646544946  -12.61936541339   -6.34232890421    2.00000000000
     -4.20645080711  -12.61936541339   -6.34232890421    2.00000000000
    -12.61936706368   -4.20644915682   -6.34232890421    2.00000000000
     -6.30967987125    4.20646709975  -12.65201609664    2.00000000000
     -4.20645080711    6.30969616389  -12.65201609664    2.00000000000
      4.20646544946    6.30969616389  -12.65201609664    2.00000000000
      6.30969451360    4.20646709975  -12.65201609664    2.00000000000
      6.30969451360   -4.20644915682  -12.65201609664    2.00000000000
      4.20646544946   -6.30967822096  -12.65201609664    2.00000000000
     -4.20645080711   -6.30967822096  -12.65201609664    2.00000000000
     -6.30967987125   -4.20644915682  -12.65201609664    2.00000000000
      0.00000732117    0.00000897147  -14.75524516078    2.00000000000
    -14.72260352282    2.10323249699   -0.00000184672   -2.00000000000
    -10.51614539454   10.51614875355   -0.00000184672   -2.00000000000
     -2.10322913797   14.72260688184   -0.00000184672   -2.00000000000
      2.10322899032   14.72260688184   -0.00000184672   -2.00000000000
     10.51614524688   10.51614875355   -0.00000184672   -2.00000000000
     14.72260337517    2.10323249699   -0.00000184672   -2.00000000000
     14.72260337517   -2.10322563130   -0.00000184672   -2.00000000000
     10.51614524688  -10.51614188787   -0.00000184672   -2.00000000000
      2.10322899032  -14.72260001615   -0.00000184672   -2.00000000000
     -2.10322913797  -14.72260001615   -0.00000184672   -2.00000000000
    -10.51614539454  -10.51614188787   -0.00000184672   -2.00000000000
    -14.72260352282   -2.10322563130   -0.00000184672   -2.00000000000
    -14.72260076317    0.00000013655   -2.13228003377   -2.00000000000
      0.00000097398   14.72260656188   -2.13226748721   -2.00000000000
     14.72260613482    0.00000013655   -2.13228003377   -2.00000000000
      0.00000097398  -14.72260033611   -2.13226748721   -2.00000000000
    -10.51613799954    8.41292522803   -6.34232890421   -2.00000000000
     -8.41290893540   10.51615429218   -6.34232890421   -2.00000000000
      8.41292357774   10.51615429218   -6.34232890421   -2.00000000000
     10.51615264188    8.41292522803   -6.34232890421   -2.00000000000
     10.51615264188   -8.41290728510   -6.34232890421   -2.00000000000
      8.41292357774  -10.51613634924   -6.34232890421   -2.00000000000
     -8.41290893540  -10.51613634924   -6.34232890421   -2.00000000000
    -10.51613799954   -8.41290728510   -6.34232890421   -2.00000000000
    -10.51613799954    6.30969616389   -8.44555796836   -2.00000000000
     -6.30967987125   10.51615429218   -8.44555796836   -2.00000000000
      6.30969451360   10.51615429218   -8.44555796836   -2.00000000000
     10.51615264188    6.30969616389   -8.44555796836   -2.00000000000
     10.51615264188   -6.30967822096   -8.44555796836   -2.00000000000
      6.30969451360  -10.51613634924   -8.44555796836   -2.00000000000
     -6.30967987125  -10.51613634924   -8.44555796836   -2.00000000000
    -10.51613799954   -6.30967822096   -8.44555796836   -2.00000000000
    -10.51613799954    0.00000897147  -10.54878703250   -2.00000000000
     -8.41290893540    6.30969616389  -10.54878703250   -2.00000000000
     -6.30967987125    8.41292522803  -10.54878703250   -2.00000000000
      0.00000732117   10.51615429218  -10.54878703250   -2.00000000000
      6.30969451360    8.41292522803  -10.54878703250   -2.00000000000
      8.41292357774    6.30969616389  -10.54878703250   -2.00000000000
     10.51615264188    0.00000897147  -10.54878703250   -2.00000000000
      8.41292357774   -6.30967822096  -10.54878703250   -2.00000000000
      6.30969451360   -8.41290728510  -10.54878703250   -2.00000000000
      0.00000732117  -10.51613634924  -10.54878703250   -2.00000000000
     -6.30967987125   -8.41290728510  -10.54878703250   -2.00000000000
     -8.41290893540   -6.30967822096  -10.54878703250   -2.00000000000
     -2.10322174297    0.00000897147  -14.75524516078   -2.00000000000
      0.00000732117    2.10323803561  -14.75524516078   -2.00000000000
      2.10323638531    0.00000897147  -14.75524516078   -2.00000000000
      0.00000732117   -2.10322009268  -14.75524516078   -2.00000000000
    -14.72259785947    2.10323704324   -2.12732261718    2.00000000000
    -10.51613973119   10.51615329981   -2.12732261718    2.00000000000
     -2.10322347462   14.72261142809   -2.12732261718    2.00000000000
      2.10323465367   14.72261142809   -2.12732261718    2.00000000000
     10.51615091024   10.51615329981   -2.12732261718    2.00000000000
     14.72260903852    2.10323704324   -2.12732261718    2.00000000000
     14.72260903852   -2.10322108505   -2.12732261718    2.00000000000
     10.51615091024  -10.51613734162   -2.12732261718    2.00000000000
      2.10323465367  -14.72259546990   -2.12732261718    2.00000000000
     -2.10322347462  -14.72259546990   -2.12732261718    2.00000000000
    -10.51613973119  -10.51613734162   -2.12732261718    2.00000000000
    -14.72259785947   -2.10322108505   -2.12732261718    2.00000000000
    -10.51613799954    2.10323803561  -10.54878703250    2.00000000000
     -2.10322174297   10.51615429218  -10.54878703250    2.00000000000
      2.10323638531   10.51615429218  -10.54878703250    2.00000000000
     10.51615264188    2.10323803561  -10.54878703250    2.00000000000
     10.51615264188   -2.10322009268  -10.54878703250    2.00000000000
      2.10323638531  -10.51613634924  -10.54878703250    2.00000000000
     -2.10322174297  -10.51613634924  -10.54878703250    2.00000000000
    -10.51613799954   -2.10322009268  -10.54878703250    2.00000000000
     -2.10322174297    2.10323803561  -14.75524516078    2.00000000000
      2.10323638531    2.10323803561  -14.75524516078    2.00000000000
      2.10323638531   -2.10322009268  -14.75524516078    2.00000000000
     -2.10322174297   -2.10322009268  -14.75524516078    2.00000000000
    -12.61937438485    8.41291625657    0.00000000000   -2.00000000000
     -8.41291625657   12.61937438485    0.00000000000   -2.00000000000
      8.41291625657   12.61937438485    0.00000000000   -2.00000000000
     12.61937438485    8.41291625657    0.00000000000   -2.00000000000
     12.61937438485   -8.41291625657    0.00000000000   -2.00000000000
      8.41291625657  -12.61937438485    0.00000000000   -2.00000000000
     -8.41291625657  -12.61937438485    0.00000000000   -2.00000000000
    -12.61937438485   -8.41291625657    0.00000000000   -2.00000000000
    -12.61936706368    0.00000897147   -8.44555796836   -2.00000000000
      0.00000732117   12.61938335632   -8.44555796836   -2.00000000000
     12.61938170602    0.00000897147   -8.44555796836   -2.00000000000
      0.00000732117  -12.61936541339   -8.44555796836   -2.00000000000
     -8.41290893540    0.00000897147  -12.65201609664   -2.00000000000
      0.00000732117    8.41292522803  -12.65201609664   -2.00000000000
      8.41292357774    0.00000897147  -12.65201609664   -2.00000000000
      0.00000732117   -8.41290728510  -12.65201609664   -2.00000000000
    -14.72260059364    4.20646185838   -0.04129472389    2.00000000000
     -4.20645890349   14.72260810408   -0.04127288263    2.00000000000
      4.20645735308   14.72260810408   -0.04127288263    2.00000000000
     14.72260630435    4.20646185838   -0.04129472389    2.00000000000
     14.72260630435   -4.20645439819   -0.04129472389    2.00000000000
      4.20645735308  -14.72259879391   -0.04127288263    2.00000000000
     -4.20645890349  -14.72259879391   -0.04127288263    2.00000000000
    -14.72260059364   -4.20645439819   -0.04129472389    2.00000000000
    -12.61936887543    8.41292459085   -2.12731743682    2.00000000000
     -8.41291074714   12.61938271913   -2.12731743682    2.00000000000
      8.41292176600   12.61938271913   -2.12731743682    2.00000000000
     12.61937989428    8.41292459085   -2.12731743682    2.00000000000
     12.61937989428   -8.41290792229   -2.12731743682    2.00000000000
      8.41292176600  -12.61936605057   -2.12731743682    2.00000000000
     -8.41291074714  -12.61936605057   -2.12731743682    2.00000000000
    -12.61936887543   -8.41290792229   -2.12731743682    2.00000000000
    -14.72259612782    0.00000897147   -4.23909984007    2.00000000000
      0.00000732117   14.72261242046   -4.23909984007    2.00000000000
     14.72261077017    0.00000897147   -4.23909984007    2.00000000000
      0.00000732117  -14.72259447753   -4.23909984007    2.00000000000
    -12.61936706368    2.10323803561   -8.44555796836    2.00000000000
     -2.10322174297   12.61938335632   -8.44555796836    2.00000000000
      2.10323638531   12.61938335632   -8.44555796836    2.00000000000
     12.61938170602    2.10323803561   -8.44555796836    2.00000000000
     12.61938170602   -2.10322009268   -8.44555796836    2.00000000000
      2.10323638531  -12.61936541339   -8.44555796836    2.00000000000
     -2.10322174297  -12.61936541339   -8.44555796836    2.00000000000
    -12.61936706368   -2.10322009268   -8.44555796836    2.00000000000
     -8.41290893540    2.10323803561  -12.65201609664    2.00000000000
     -2.10322174297    8.41292522803  -12.65201609664    2.00000000000
      2.10323638531    8.41292522803  -12.65201609664    2.00000000000
      8.41292357774    2.10323803561  -12.65201609664    2.00000000000
      8.41292357774   -2.10322009268  -12.65201609664    2.00000000000
      2.10323638531   -8.41290728510  -12.65201609664    2.00000000000
     -2.10322174297   -8.41290728510  -12.65201609664    2.00000000000
[...]
 
      126.71 MB memory is utilized for (T)

 0%       25%       50%       75%       100%
 |---------|---------|---------|---------| 
 
 (T) correction [au]:                   -0.002620523048
 CCSD(T) correlation energy [au]:       -0.071906867213
 
 CPU time [min]:  2087.924                   Wall time [min]:    30.346
 
 MO:    52
 Number of atoms in domain:      18
 Number of atomic orbitals:     768
 Number of atoms for local DF:   14
 Number of fitting functions:  3026  (77.85%)
 Number of occupied orbitals:    17
 Number of virtual  orbitals:   562
 Number of Cholesky vectors:      6
 MP2 energy in ED [au]:          -0.070033568345
 Number of occupied LNOs:        11  (64.71%)
 Number of virtual  LNOs:        47   (8.36%)
 tol*100>norm                   185  9.435946223654641E-003
 tol*100>norm                   231  9.436148544486208E-003
 tol*100>norm                   277  9.361054213149912E-003
 tol*100>norm                   415  8.243734133678085E-003
 avg/min projected vLNO norm    9.9972E-01    9.9871E-01
 Number of Cholesky vectors:      6
 MP2 energy in LIS [au]:         -0.069266496086
 Correction for frozen LNO [au]: -0.000767072258     (1.095%)
 Number of NAFs:                156   (5.16%)
 CPU time [min]:  2108.965                   Wall time [min]:    30.656
 

 Direct DF-CCSD(T) calculation
 
 Convergence criterion:  1.0E-05
 
 Number of occupied/virtual/auxiliary orbitals:    11    47   156
     85.95 MB is the minimal memory requirement for (T)
     81.05 MB is the minimal memory requirement for CCSD
 
 MP2 correlation energy [au]:        -0.327059562329
 
 LMP2 domain correlation energy contribution [au]:       -0.069264809287
 
 CPU time [min]:  2109.017                   Wall time [min]:    30.656
 
 
 Starting CCSD iterations...
 
                     Residual norm       Correlation Energy
 Iteration  1        0.160717655601       -0.324761734016
 Iteration  2        0.036535800944       -0.332167634147
 Iteration  3        0.012476769860       -0.333660447805
 Iteration  4        0.003055360301       -0.333483212330
 Iteration  5        0.000930987663       -0.333530025777
 Iteration  6        0.000188664965       -0.333534490049
 Iteration  7        0.000053434373       -0.333533500952
 
 CCSD iteration has converged in  7 steps.
       98.67 MB memory was utilized by CCSD
 
 T1 diagnostic:      7.841E-03            D1 diagnostic:      2.194E-02
 
 CCSD correlation energy [au]:          -0.068771163677
 
 CPU time [min]:  2109.434                   Wall time [min]:    30.663
 
 Calculation of (T) correction...
 
 Laplace threshold, nquadmin:  1.00E-01   2
 Number of quadrature points:    2
 
       91.75 MB memory is utilized for (T)

 0%       25%       50%       75%       100%
 |---------|---------|---------|---------| 
 
 (T) correction [au]:                   -0.002499328859
 CCSD(T) correlation energy [au]:       -0.071270492536
 
 CPU time [min]:  2109.938                   Wall time [min]:    30.670
 
 MO:    53
 Number of atoms in domain:      19
 Number of atomic orbitals:     814
 Number of atoms for local DF:   19
 Number of fitting functions:  4096 (100.00%)
 Number of occupied orbitals:    32
 Number of virtual  orbitals:   719
 Number of Cholesky vectors:      7
 MP2 energy in ED [au]:          -0.070565638309
 Number of occupied LNOs:        21  (65.62%)
 Number of virtual  LNOs:        69   (9.60%)
 tol*100>norm                   219  9.426643470187665E-003
 tol*100>norm                   265  9.426634646606362E-003
 tol*100>norm                   403  9.357394719358432E-003
 tol*100>norm                   449  9.345012145995920E-003
 tol*100>norm                   495  9.357611368881504E-003
 tol*100>norm                   633  8.243147349193059E-003
 tol*100>norm                   771  8.046238857561769E-003
 avg/min projected vLNO norm    1.0000E+00    1.0000E+00
 Number of Cholesky vectors:      5
 MP2 energy in LIS [au]:         -0.069386762330
 Correction for frozen LNO [au]: -0.001178875979     (1.671%)
 Number of NAFs:                253   (6.18%)
 CPU time [min]:  2164.086                   Wall time [min]:    31.454
 

 Direct DF-CCSD(T) calculation
 
 Convergence criterion:  1.0E-05
 
 Number of occupied/virtual/auxiliary orbitals:    21    69   253
    147.82 MB is the minimal memory requirement for (T)
    123.82 MB is the minimal memory requirement for CCSD
 
 MP2 correlation energy [au]:        -0.526801304333
 
 LMP2 domain correlation energy contribution [au]:       -0.069379783496
 
 CPU time [min]:  2164.168                   Wall time [min]:    31.455
 
 
 Starting CCSD iterations...
 
                     Residual norm       Correlation Energy
 Iteration  1        0.187869179509       -0.539555264119
 Iteration  2        0.043236045183       -0.552584024281
 Iteration  3        0.013213111816       -0.553923466319
 Iteration  4        0.003117353619       -0.553919772503
 Iteration  5        0.000826638493       -0.553948380580
 Iteration  6        0.000165731429       -0.553946980736
 Iteration  7        0.000035144868       -0.553947185248
 
 CCSD iteration has converged in  7 steps.
      203.95 MB memory was utilized by CCSD
 
 T1 diagnostic:      8.512E-03            D1 diagnostic:      2.567E-02
 
 CCSD correlation energy [au]:          -0.069255997698
 
 CPU time [min]:  2165.747                   Wall time [min]:    31.478
 
 Calculation of (T) correction...
 
 Laplace threshold, nquadmin:  1.00E-01   2
 Number of quadrature points:    2
 
      199.23 MB memory is utilized for (T)

 0%       25%       50%       75%       100%
 |---------|---------|---------|---------| 
 
 (T) correction [au]:                   -0.002508626169
 CCSD(T) correlation energy [au]:       -0.071764623867
 
 CPU time [min]:  2167.749                   Wall time [min]:    31.507
 
 MO:    54
 Number of atoms in domain:      19
 Number of atomic orbitals:     814
 Number of atoms for local DF:   13
 Number of fitting functions:  2842  (69.38%)
 Number of occupied orbitals:    26
 Number of virtual  orbitals:   505
 Number of Cholesky vectors:      7
 MP2 energy in ED [au]:          -0.070844682815
 Number of occupied LNOs:        16  (61.54%)
 Number of virtual  LNOs:        57  (11.29%)
 tol*100>norm                   265  9.422281822005468E-003
 tol*100>norm                   357  9.357148378704364E-003
 tol*100>norm                   403  9.356579692290954E-003
 tol*100>norm                   449  8.248074749406269E-003
 tol*100>norm                   495  8.248037615827606E-003
 avg/min projected vLNO norm    9.9951E-01    9.9741E-01
 Number of Cholesky vectors:      6
 MP2 energy in LIS [au]:         -0.069879867035
 Correction for frozen LNO [au]: -0.000964815781     (1.362%)
 Number of NAFs:                200   (7.04%)
 CPU time [min]:  2191.646                   Wall time [min]:    31.850
 

 Direct DF-CCSD(T) calculation
 
 Convergence criterion:  1.0E-05
 
 Number of occupied/virtual/auxiliary orbitals:    16    57   200
    107.12 MB is the minimal memory requirement for (T)
     95.68 MB is the minimal memory requirement for CCSD
 
 MP2 correlation energy [au]:        -0.373271782819
 
 LMP2 domain correlation energy contribution [au]:       -0.069877229998
 
 CPU time [min]:  2191.707                   Wall time [min]:    31.851
 
 
 Starting CCSD iterations...
 
                     Residual norm       Correlation Energy
 Iteration  1        0.171186001539       -0.376058064299
 Iteration  2        0.041391224937       -0.385633600459
 Iteration  3        0.013989420910       -0.387563201314
 Iteration  4        0.003608244902       -0.387318099780
 Iteration  5        0.001104836925       -0.387361896990
 Iteration  6        0.000249439203       -0.387369772393
 Iteration  7        0.000075615611       -0.387367861676
 
 CCSD iteration has converged in  7 steps.
      132.95 MB memory was utilized by CCSD
 
 T1 diagnostic:      8.246E-03            D1 diagnostic:      2.553E-02
 
 CCSD correlation energy [au]:          -0.069286313492
 
 CPU time [min]:  2192.638                   Wall time [min]:    31.865
 
 Calculation of (T) correction...
 
 Laplace threshold, nquadmin:  1.00E-01   2
 Number of quadrature points:    2
 
      126.71 MB memory is utilized for (T)

 0%       25%       50%       75%       100%
 |---------|---------|---------|---------| 
 
 (T) correction [au]:                   -0.002620506754
 CCSD(T) correlation energy [au]:       -0.071906820246
 
 CPU time [min]:  2193.555                   Wall time [min]:    31.878
 
 MO:    55
 Number of atoms in domain:      19
 Number of atomic orbitals:     814
 Number of atoms for local DF:   19
 Number of fitting functions:  4096 (100.00%)
 Number of occupied orbitals:    32
 Number of virtual  orbitals:   719
 Number of Cholesky vectors:      7
 MP2 energy in ED [au]:          -0.070565582672
 Number of occupied LNOs:        21  (65.62%)
 Number of virtual  LNOs:        69   (9.60%)
 tol*100>norm                   265  9.426637004232463E-003
 tol*100>norm                   311  9.426704619403235E-003
 tol*100>norm                   449  9.357419044758657E-003
 tol*100>norm                   495  9.345203417924859E-003
 tol*100>norm                   541  9.356912415302818E-003
 tol*100>norm                   679  8.243125798907965E-003
 tol*100>norm                   771  8.046497434669765E-003
 avg/min projected vLNO norm    1.0000E+00    1.0000E+00
 Number of Cholesky vectors:      5
 MP2 energy in LIS [au]:         -0.069386352811
 Correction for frozen LNO [au]: -0.001179229861     (1.671%)
 Number of NAFs:                253   (6.18%)
 CPU time [min]:  2247.723                   Wall time [min]:    32.661
 

 Direct DF-CCSD(T) calculation
 
 Convergence criterion:  1.0E-05
 
 Number of occupied/virtual/auxiliary orbitals:    21    69   253
    147.82 MB is the minimal memory requirement for (T)
    123.82 MB is the minimal memory requirement for CCSD
 
 MP2 correlation energy [au]:        -0.526933534428
 
 LMP2 domain correlation energy contribution [au]:       -0.069379378091
 
 CPU time [min]:  2247.806                   Wall time [min]:    32.662
 
 
 Starting CCSD iterations...
 
                     Residual norm       Correlation Energy
 Iteration  1        0.187852725407       -0.539692528124
 Iteration  2        0.043224094008       -0.552719642521
 Iteration  3        0.013210508312       -0.554059544124
 Iteration  4        0.003117519485       -0.554056086026
 Iteration  5        0.000826692623       -0.554084706454
 Iteration  6        0.000165743727       -0.554083291734
 Iteration  7        0.000035133748       -0.554083497432
 
 CCSD iteration has converged in  7 steps.
      203.95 MB memory was utilized by CCSD
 
 T1 diagnostic:      8.510E-03            D1 diagnostic:      2.566E-02
 
 CCSD correlation energy [au]:          -0.069255668143
 
 CPU time [min]:  2249.397                   Wall time [min]:    32.685
 
 Calculation of (T) correction...
 
 Laplace threshold, nquadmin:  1.00E-01   2
 Number of quadrature points:    2
 
      199.23 MB memory is utilized for (T)

 0%       25%       50%       75%       100%
 |---------|---------|---------|---------| 
 
 (T) correction [au]:                   -0.002508575988
 CCSD(T) correlation energy [au]:       -0.071764244131
 
 CPU time [min]:  2251.332                   Wall time [min]:    32.713
 
 MO:    56
 Number of atoms in domain:      19
 Number of atomic orbitals:     814
 Number of atoms for local DF:   13
 Number of fitting functions:  2842  (69.38%)
 Number of occupied orbitals:    26
 Number of virtual  orbitals:   505
 Number of Cholesky vectors:      7
 MP2 energy in ED [au]:          -0.070843675982
 Number of occupied LNOs:        16  (61.54%)
 Number of virtual  LNOs:        57  (11.29%)
 tol*100>norm                   219  9.422252893344342E-003
 tol*100>norm                   357  9.356966688861986E-003
 tol*100>norm                   403  9.356852273380428E-003
 tol*100>norm                   449  8.248048543922134E-003
 tol*100>norm                   495  8.248094363846447E-003
 avg/min projected vLNO norm    9.9951E-01    9.9751E-01
 Number of Cholesky vectors:      6
 MP2 energy in LIS [au]:         -0.069880807618
 Correction for frozen LNO [au]: -0.000962868365     (1.359%)
 Number of NAFs:                200   (7.04%)
 CPU time [min]:  2275.310                   Wall time [min]:    33.057
 

 Direct DF-CCSD(T) calculation
 
 Convergence criterion:  1.0E-05
 
 Number of occupied/virtual/auxiliary orbitals:    16    57   200
    107.12 MB is the minimal memory requirement for (T)
     95.68 MB is the minimal memory requirement for CCSD
 
 MP2 correlation energy [au]:        -0.373317023395
 
 LMP2 domain correlation energy contribution [au]:       -0.069878168891
 
 CPU time [min]:  2275.371                   Wall time [min]:    33.058
 
 
 Starting CCSD iterations...
 
                     Residual norm       Correlation Energy
 Iteration  1        0.171213147684       -0.376129292034
 Iteration  2        0.041400150832       -0.385713204858
 Iteration  3        0.013992940085       -0.387643206858
 Iteration  4        0.003609844484       -0.387397889971
 Iteration  5        0.001106179367       -0.387441867904
 Iteration  6        0.000249923896       -0.387449726878
 Iteration  7        0.000075748255       -0.387447809201
 
 CCSD iteration has converged in  7 steps.
      132.95 MB memory was utilized by CCSD
 
 T1 diagnostic:      8.246E-03            D1 diagnostic:      2.553E-02
 
 CCSD correlation energy [au]:          -0.069287835711
 
 CPU time [min]:  2276.320                   Wall time [min]:    33.072
 
 Calculation of (T) correction...
 
 Laplace threshold, nquadmin:  1.00E-01   2
 Number of quadrature points:    2
 
      126.71 MB memory is utilized for (T)

 0%       25%       50%       75%       100%
 |---------|---------|---------|---------| 
 
 (T) correction [au]:                   -0.002620570318
 CCSD(T) correlation energy [au]:       -0.071908406029
 
 CPU time [min]:  2277.268                   Wall time [min]:    33.086
 
 **********************************************************************
 Dimensions of the extended domains:    Minimum / Average / Maximum
 
 Number of atoms in domain:                  18      18.8        19
 Number of atomic orbitals:                 768     804.1       814
 Number of fitting functions:              2817    3605.5      4096
 Number of occupied localized MOs:           16      26.0        41
 Number of PAOs:                            505     643.1       719
 Number of occupied LNOs:                    10      15.3        24
 Number of virtual  LNOs:                    45      57.6        78
 Number of NAFs:                            147     201.4       284
 
 **********************************************************************
 Distant (and weak) pair contributions, corrections
 
 Sum of pair energies [au]:                    -0.004521196455    (0.115%)
 Sum of energy corrections [au]:               -0.059191555529    (1.500%)
 Pair energies + LNO corrections [au]:         -0.063712751984
 Sum of LMP2 contributions [au]:               -3.947320150922
 
 **********************************************************************
  Time of manipulations in the EDs:      max CPU/Wall [s]  all CPU/Wall [min]
 
 PD construction & multipole pair E    1231.33    17.56    20.52     0.29
 Construct MO basis of the ED            29.03     0.39    21.43     0.29
 (mu,nu|P) evaluation & trf 2 (ai|P)   1234.67    16.30   685.41     9.05
 Evaluate MP2 energy of the ED           92.39     1.22    43.57     0.58
 Transformations to the LNO basis        46.20     0.64    24.40     0.33
 Build W_PQ (Jai or Jpi part)            11.87     0.16     6.48     0.09
 Evaluate MP2 energy of the LIS           0.89     0.01     0.43     0.01
 (mu,nu|P) evaluation & trf 2 J(abQ)   2283.02    34.85  1328.51    20.35
 Total of the above for all EDs        3698.07    53.58  2110.23    30.69
 
 **********************************************************************
 Maximum memory requirement [MB]:       
 
 PD construction & multipole pair E         98.4
 AO integral evaluation in the EDs        5149.0
 (mu,nu|P) evaluation & trf 2 (aI|P)      8873.7
 Evaluate MP2 energy in the EDs           2456.8
 Transformation to the LNO basis           579.2
 (mu,nu|P) to Jab transformation          5579.9
 Evaluate MP2 energy in the LIS            805.6
 Minimum requirement for LIS CCSD          151.8
 Actually allocated  for LIS CCSD          284.0
 Minimum requirement for LIS (T)           188.9
 Actually allocated  for LIS (T)           277.7
 
 ======================================================================
 ======================================================================
 
 
 
 ======================================================================
 ======================================================================
 
 Final local CC results:
 
 Minimum number of correlated electrons:        20       ( 17.9%)
 Maximum number of correlated electrons:        48       ( 42.9%)
 Average number of correlated electrons:        30.6     ( 27.4%)
 Minimum number of correlated orbitals:         55       (  7.1%)
 Maximum number of correlated orbitals:        102       ( 13.2%)
 Average number of correlated orbitals:         72.9     (  9.4%)
 
 CPU time for integral calculations [min]:                 11.038
 Wall time for integral calculations [min]:                 3.621
 
 CPU time for SCF calculation [min]:                      363.167
 Wall time for SCF calculation [min]:                       4.823
 
 CPU time for orbital localization [min]:                   0.522
 Wall time for orbital localization [min]:                  0.019
 
 CPU time for integral transformations [min]:            2163.961
 Wall time for integral transformations [min]:             31.422
 
 Reference energy [au]:                                -10169.071132793859
 
 LMP2 correlation energy [au]:                             -3.947320150922
 Total LMP2 energy [au]:                               -10173.018452944780
 
 Total MP2 correction for dropped NAFs [au]:               -0.000224688997
 Total MP2 correction [au]:                                -0.063937440981
 
 CPU time for CCSD calculations [min]:                     54.139
 Total CPU time for CCSD [min]:                          2592.827
 Wall time for CCSD calculations [min]:                     0.808
 Total wall time for CCSD [min]:                           40.693
 
 CCSD correlation energy [au]:                             -3.863455994109
 Total CCSD energy [au]:                               -10172.934588787968
 CCSD correlation energy + 0.5 MP2 corrections [au]:       -3.895424714599
 Total LNO-CCSD energy with MP2 corrections [au]:      -10172.966557508458
 
 CPU time for (T) corrections [min]:                       59.173
 Total CPU time for CCSD(T) [min]:                       2652.000
 Wall time for (T) corrections [min]:                       0.857
 Total wall time for CCSD(T) [min]:                        41.550
 
 Total (T) correlation energy contribution [au]:           -0.140880628530
 Total (T) correlation energy+0.5 MP2 correction [au]:     -0.172849349021
 CCSD(T) correlation energy [au]:                          -4.004336622639
 Total CCSD(T) energy [au]:                            -10173.075469416497
 CCSD(T) correlation energy + MP2 corrections [au]:        -4.068274063620
 Total LNO-CCSD(T) energy with MP2 corrections [au]:   -10173.139406857479
 
 ======================================================================
 ======================================================================
 
 ************************ 2021-11-07 15:46:31 *************************
                      Normal termination of mrcc.
 **********************************************************************
