 **********************************************************************
                          MRCC program system
 **********************************************************************
 
                              Written by
 Mihaly Kallay, Peter R. Nagy, David Mester, Zoltan Rolik, Gyula Samu,
   Jozsef Csontos, Jozsef Csoka, P. Bernat Szabo, Laszlo Gyevi-Nagy,
    Bence Hegely, Istvan Ladjanszki, Lorant Szegedy, Bence Ladoczki,
       Klara Petrov, Mate Farkas, Pal D. Mezei, and Adam Ganyecz
 
        Department of Physical Chemistry and Materials Science
            Budapest University of Technology and Economics
                  Budapest P.O.Box 91, H-1521 Hungary
 
                              www.mrcc.hu
 
                    Release date: February 22, 2020

 ************************ 2021-10-17 18:38:44 *************************
 Executing minp...

 Reading input from MINP...
 
 Input file:
 
calc=SCF
dft=PBE
scftype=rks
verbosity=3
mem=170GB
symm=off
unit=angs
scfiguess=sad
scfmaxit=1000

charge=1238
basis=special
def2-SVP
def2-SVP
def2-SVP
def2-SVP
def2-SVP
def2-SVP
def2-SVP
def2-SVP
def2-SVP
def2-SVP
def2-SVP
def2-SVP
def2-SVP
def2-SVP
def2-SVP
def2-SVP
def2-SVP
def2-SVP
def2-SVP
def2-SVP
def2-SVP
def2-SVP
def2-SVP
def2-SVP
def2-SVP
def2-SVP
def2-SVP
def2-SVP
def2-SVP
def2-SVP
def2-SVP
def2-SVP
def2-SVP
def2-SVP
def2-SVP
def2-SVP
def2-SVP
def2-SVP
def2-SVP
def2-SVP
def2-SVP
def2-SVP
def2-SVP
def2-SVP
def2-SVP
def2-SVP
def2-SVP
def2-SVP
def2-SVP
def2-SVP
def2-SVP
def2-SVP
def2-SVP
def2-SVP
def2-SVP
def2-SVP
def2-SVP
def2-SVP
def2-SVP
def2-SVP
def2-SVP
def2-SVP
def2-SVP
def2-SVP
def2-SVP
def2-SVP
def2-SVP
def2-SVP
def2-SVP
def2-SVP
def2-SVP
def2-SVP
def2-SVP
def2-SVP
def2-SVP
def2-SVP
def2-SVP
def2-SVP
def2-SVP
def2-SVP
def2-SVP
def2-SVP
def2-SVP
def2-SVP
def2-SVP
def2-SVP
def2-SVP
def2-SVP
def2-SVP
def2-SVP
def2-SVP
def2-SVP
def2-SVP
def2-SVP
def2-SVP
def2-SVP
def2-SVP
def2-SVP
def2-SVP
def2-SVP
def2-SVP
def2-SVP
def2-SVP
def2-SVP
def2-SVP
def2-SVP
def2-SVP
def2-SVP
def2-SVP
def2-SVP
def2-SVP
def2-SVP
def2-SVP
def2-SVP
def2-SVP
def2-SVP
def2-SVP
def2-SVP
def2-SVP
def2-SVP
def2-SVP
def2-SVP
def2-SVP
def2-SVP
def2-SVP
def2-SVP
def2-SVP
def2-SVP
def2-SVP
def2-SVP
def2-SVP
def2-SVP
def2-SVP
def2-SVP
def2-SVP
def2-SVP
def2-SVP
def2-SVP
def2-SVP
def2-SVP
def2-SVP
def2-SVP
def2-SVP
def2-SVP
def2-SVP
def2-SVP
def2-SVP
def2-SVP
def2-SVP
def2-SVP
def2-SVP
def2-SVP
def2-SVP
def2-SVP
def2-SVP
def2-SVP
def2-SVP
def2-SVP
def2-SVP
def2-SVP
def2-SVP
def2-SVP
def2-SVP
def2-SVP
def2-SVP
def2-SVP
def2-SVP
def2-SVP
def2-SVP
def2-SVP
def2-SVP
def2-SVP
def2-SVP
def2-SVP
def2-SVP
def2-SVP
def2-SVP
def2-SVP
def2-SVP
def2-SVP
def2-SVP
def2-SVP
def2-SVP
def2-SVP
def2-SVP
def2-SVP
def2-SVP
def2-SVP
def2-SVP
def2-SVP
def2-SVP
def2-SVP
def2-SVP
def2-SVP
def2-SVP
def2-SVP
def2-SVP
def2-SVP
def2-SVP
def2-SVP
def2-SVP
def2-SVP
def2-SVP
def2-SVP
def2-SVP
def2-SVP
def2-SVP
def2-SVP
def2-SVP
nothing
nothing
nothing
nothing
nothing
nothing
nothing
nothing
nothing
nothing
nothing
nothing
nothing
nothing
nothing
nothing
nothing
nothing
nothing
nothing
nothing
nothing
nothing
nothing
nothing
nothing
nothing
nothing
nothing
nothing
nothing
nothing
nothing
nothing
nothing
nothing
nothing
nothing
nothing
nothing
nothing
nothing
nothing
nothing
nothing
nothing
nothing
nothing
nothing
nothing
nothing
nothing
nothing
nothing
nothing
nothing
nothing
nothing
nothing
nothing
nothing
nothing
nothing
nothing
nothing
nothing
nothing
nothing
nothing
nothing
nothing
nothing
nothing
nothing
nothing
nothing
nothing
nothing
nothing
nothing
nothing
nothing
nothing
nothing
nothing
nothing
nothing
nothing
nothing
nothing
nothing
nothing
nothing
nothing
nothing
nothing
nothing
nothing
nothing
nothing
nothing
nothing
nothing
nothing
nothing
nothing
nothing
nothing
nothing
nothing
nothing
nothing
nothing
nothing
nothing
nothing
nothing
nothing
nothing
nothing
nothing
nothing
nothing
nothing
nothing
nothing
nothing
nothing
nothing
nothing
nothing
nothing
nothing
nothing
nothing
nothing
nothing
nothing
nothing
nothing
nothing
nothing
nothing
nothing
nothing
nothing
nothing
nothing
nothing
nothing
nothing
nothing
nothing
nothing
nothing
nothing
nothing
nothing
nothing
nothing
nothing
nothing
nothing
nothing
nothing
nothing
nothing
nothing
nothing
nothing
nothing
nothing
nothing
nothing
nothing
nothing
nothing
nothing
nothing
nothing
nothing
nothing
nothing
nothing
nothing
nothing
nothing
nothing
nothing
nothing
nothing
nothing
nothing
nothing
nothing
nothing
nothing
nothing
nothing
nothing
nothing
nothing
nothing
nothing
nothing
nothing
nothing
nothing
nothing
nothing
nothing
nothing
nothing
nothing
nothing
nothing
nothing
nothing
nothing
nothing
nothing
nothing
nothing
nothing
nothing
nothing
nothing
nothing
nothing
nothing
nothing
nothing
nothing
nothing
nothing
nothing
nothing
nothing
nothing
nothing
nothing
nothing
nothing
nothing
nothing
nothing
nothing
nothing
nothing
nothing
nothing
nothing
nothing
nothing
nothing
nothing
nothing
nothing
nothing
nothing
nothing
nothing
nothing
nothing
nothing
nothing
nothing
nothing
nothing
nothing
nothing
nothing
nothing
nothing
nothing
nothing
nothing
nothing
nothing
nothing
nothing
nothing
nothing
nothing
nothing
nothing
nothing
nothing
nothing
nothing
nothing
nothing
nothing
nothing
nothing
nothing
nothing
nothing
nothing
nothing
nothing
nothing
nothing
nothing
nothing
nothing
nothing
nothing
nothing
nothing
nothing
nothing
nothing
nothing
nothing
nothing
nothing
nothing
nothing
nothing
nothing
nothing
nothing
nothing
nothing
nothing
nothing
nothing
nothing
nothing
nothing
nothing
nothing
nothing
nothing
nothing
nothing
nothing
nothing
nothing
nothing
nothing
nothing
nothing
nothing
nothing
nothing
nothing
nothing
nothing
nothing
nothing
nothing
nothing
nothing
nothing
nothing
nothing
nothing
nothing
nothing
nothing
nothing
nothing
nothing
nothing
nothing
nothing
nothing
nothing
nothing
nothing
nothing
nothing
nothing
nothing
nothing
nothing
nothing
nothing
nothing
nothing
nothing
nothing
nothing
nothing
nothing
nothing
nothing
nothing
nothing
nothing
nothing
nothing
nothing
nothing
nothing
nothing
nothing
nothing
nothing
nothing
nothing
nothing
nothing
nothing
nothing
nothing
nothing
nothing
nothing
nothing
nothing
nothing
nothing
nothing
nothing
nothing
nothing
nothing
nothing
nothing
nothing
nothing
nothing
nothing
nothing
nothing
nothing
nothing
nothing
nothing
nothing
nothing
nothing
nothing
nothing
nothing
nothing
nothing
nothing
nothing
nothing
nothing
nothing
nothing
nothing
nothing
nothing
nothing
nothing
nothing
nothing
nothing
nothing
nothing
nothing
nothing
nothing
nothing
nothing
nothing
nothing
nothing
nothing
nothing
nothing
nothing
nothing
nothing
nothing
nothing
nothing
nothing
nothing
nothing
nothing
nothing
nothing
nothing
nothing
nothing
nothing
nothing
nothing
nothing
nothing
nothing
nothing
nothing
nothing
nothing
nothing
nothing
nothing
nothing
nothing
nothing
nothing
nothing
nothing
nothing
nothing
nothing
nothing
nothing
nothing
nothing
nothing
nothing
nothing
nothing
nothing
nothing
nothing
nothing
nothing
nothing
nothing
nothing
nothing
nothing
nothing
nothing
nothing
nothing
nothing
nothing
nothing
nothing
nothing
nothing
nothing
nothing
nothing
nothing
nothing
nothing
nothing
nothing
nothing
nothing
nothing
nothing
nothing
nothing
nothing
nothing
nothing
nothing
nothing
nothing
nothing
nothing
nothing
nothing
nothing
nothing
nothing
nothing
nothing
nothing
nothing
nothing
nothing
nothing
nothing
nothing
nothing
nothing
nothing
nothing
nothing
nothing
nothing
nothing
nothing
nothing
nothing
nothing
nothing
nothing
nothing
nothing
nothing
nothing
nothing
nothing
nothing
nothing
nothing
nothing
nothing
nothing
nothing
nothing
nothing
nothing
nothing
nothing
nothing
nothing
nothing
nothing
nothing
nothing
nothing
nothing
nothing
nothing
nothing
nothing
nothing
nothing
nothing
nothing
nothing
nothing
nothing
nothing
nothing
nothing
nothing
nothing
nothing
nothing
nothing
nothing
nothing
nothing
nothing
nothing
nothing
nothing
nothing
nothing
nothing
nothing
nothing
nothing
nothing
nothing
nothing
nothing
nothing
nothing
nothing
nothing
nothing
nothing
nothing
nothing
nothing
nothing
nothing
nothing
nothing
nothing
nothing
nothing
nothing
nothing
nothing
nothing
nothing
nothing
nothing
nothing
nothing
nothing
nothing
nothing
nothing
nothing
nothing
nothing
nothing
nothing
nothing
nothing
nothing
nothing
nothing
nothing
nothing
nothing
nothing
nothing
nothing
nothing
nothing
nothing

dfbasis_scf=special
def2-QZVPP-RI-JK
def2-QZVPP-RI-JK
def2-QZVPP-RI-JK
def2-QZVPP-RI-JK
def2-QZVPP-RI-JK
def2-QZVPP-RI-JK
def2-QZVPP-RI-JK
def2-QZVPP-RI-JK
def2-QZVPP-RI-JK
def2-QZVPP-RI-JK
def2-QZVPP-RI-JK
def2-QZVPP-RI-JK
def2-QZVPP-RI-JK
def2-QZVPP-RI-JK
def2-QZVPP-RI-JK
def2-QZVPP-RI-JK
def2-QZVPP-RI-JK
def2-QZVPP-RI-JK
def2-QZVPP-RI-JK
def2-QZVPP-RI-JK
def2-QZVPP-RI-JK
def2-QZVPP-RI-JK
def2-QZVPP-RI-JK
def2-QZVPP-RI-JK
def2-QZVPP-RI-JK
def2-QZVPP-RI-JK
def2-QZVPP-RI-JK
def2-QZVPP-RI-JK
def2-QZVPP-RI-JK
def2-QZVPP-RI-JK
def2-QZVPP-RI-JK
def2-QZVPP-RI-JK
def2-QZVPP-RI-JK
def2-QZVPP-RI-JK
def2-QZVPP-RI-JK
def2-QZVPP-RI-JK
def2-QZVPP-RI-JK
def2-QZVPP-RI-JK
def2-QZVPP-RI-JK
def2-QZVPP-RI-JK
def2-QZVPP-RI-JK
def2-QZVPP-RI-JK
def2-QZVPP-RI-JK
def2-QZVPP-RI-JK
def2-QZVPP-RI-JK
def2-QZVPP-RI-JK
def2-QZVPP-RI-JK
def2-QZVPP-RI-JK
def2-QZVPP-RI-JK
def2-QZVPP-RI-JK
def2-QZVPP-RI-JK
def2-QZVPP-RI-JK
def2-QZVPP-RI-JK
def2-QZVPP-RI-JK
def2-QZVPP-RI-JK
def2-QZVPP-RI-JK
def2-QZVPP-RI-JK
def2-QZVPP-RI-JK
def2-QZVPP-RI-JK
def2-QZVPP-RI-JK
def2-QZVPP-RI-JK
def2-QZVPP-RI-JK
def2-QZVPP-RI-JK
def2-QZVPP-RI-JK
def2-QZVPP-RI-JK
def2-QZVPP-RI-JK
def2-QZVPP-RI-JK
def2-QZVPP-RI-JK
def2-QZVPP-RI-JK
def2-QZVPP-RI-JK
def2-QZVPP-RI-JK
def2-QZVPP-RI-JK
def2-QZVPP-RI-JK
def2-QZVPP-RI-JK
def2-QZVPP-RI-JK
def2-QZVPP-RI-JK
def2-QZVPP-RI-JK
def2-QZVPP-RI-JK
def2-QZVPP-RI-JK
def2-QZVPP-RI-JK
def2-QZVPP-RI-JK
def2-QZVPP-RI-JK
def2-QZVPP-RI-JK
def2-QZVPP-RI-JK
def2-QZVPP-RI-JK
def2-QZVPP-RI-JK
def2-QZVPP-RI-JK
def2-QZVPP-RI-JK
def2-QZVPP-RI-JK
def2-QZVPP-RI-JK
def2-QZVPP-RI-JK
def2-QZVPP-RI-JK
def2-QZVPP-RI-JK
def2-QZVPP-RI-JK
def2-QZVPP-RI-JK
def2-QZVPP-RI-JK
def2-QZVPP-RI-JK
def2-QZVPP-RI-JK
def2-QZVPP-RI-JK
def2-QZVPP-RI-JK
def2-QZVPP-RI-JK
def2-QZVPP-RI-JK
def2-QZVPP-RI-JK
def2-QZVPP-RI-JK
def2-QZVPP-RI-JK
def2-QZVPP-RI-JK
def2-QZVPP-RI-JK
def2-QZVPP-RI-JK
def2-QZVPP-RI-JK
def2-QZVPP-RI-JK
def2-QZVPP-RI-JK
def2-QZVPP-RI-JK
def2-QZVPP-RI-JK
def2-QZVPP-RI-JK
def2-QZVPP-RI-JK
def2-QZVPP-RI-JK
def2-QZVPP-RI-JK
def2-QZVPP-RI-JK
def2-QZVPP-RI-JK
def2-QZVPP-RI-JK
def2-QZVPP-RI-JK
def2-QZVPP-RI-JK
def2-QZVPP-RI-JK
def2-QZVPP-RI-JK
def2-QZVPP-RI-JK
def2-QZVPP-RI-JK
def2-QZVPP-RI-JK
def2-QZVPP-RI-JK
def2-QZVPP-RI-JK
def2-QZVPP-RI-JK
def2-QZVPP-RI-JK
def2-QZVPP-RI-JK
def2-QZVPP-RI-JK
def2-QZVPP-RI-JK
def2-QZVPP-RI-JK
def2-QZVPP-RI-JK
def2-QZVPP-RI-JK
def2-QZVPP-RI-JK
def2-QZVPP-RI-JK
def2-QZVPP-RI-JK
def2-QZVPP-RI-JK
def2-QZVPP-RI-JK
def2-QZVPP-RI-JK
def2-QZVPP-RI-JK
def2-QZVPP-RI-JK
def2-QZVPP-RI-JK
def2-QZVPP-RI-JK
def2-QZVPP-RI-JK
def2-QZVPP-RI-JK
def2-QZVPP-RI-JK
def2-QZVPP-RI-JK
def2-QZVPP-RI-JK
def2-QZVPP-RI-JK
def2-QZVPP-RI-JK
def2-QZVPP-RI-JK
def2-QZVPP-RI-JK
def2-QZVPP-RI-JK
def2-QZVPP-RI-JK
def2-QZVPP-RI-JK
def2-QZVPP-RI-JK
def2-QZVPP-RI-JK
def2-QZVPP-RI-JK
def2-QZVPP-RI-JK
def2-QZVPP-RI-JK
def2-QZVPP-RI-JK
def2-QZVPP-RI-JK
def2-QZVPP-RI-JK
def2-QZVPP-RI-JK
def2-QZVPP-RI-JK
def2-QZVPP-RI-JK
def2-QZVPP-RI-JK
def2-QZVPP-RI-JK
def2-QZVPP-RI-JK
def2-QZVPP-RI-JK
def2-QZVPP-RI-JK
def2-QZVPP-RI-JK
def2-QZVPP-RI-JK
def2-QZVPP-RI-JK
def2-QZVPP-RI-JK
def2-QZVPP-RI-JK
def2-QZVPP-RI-JK
def2-QZVPP-RI-JK
def2-QZVPP-RI-JK
def2-QZVPP-RI-JK
def2-QZVPP-RI-JK
def2-QZVPP-RI-JK
def2-QZVPP-RI-JK
def2-QZVPP-RI-JK
def2-QZVPP-RI-JK
def2-QZVPP-RI-JK
def2-QZVPP-RI-JK
def2-QZVPP-RI-JK
def2-QZVPP-RI-JK
def2-QZVPP-RI-JK
def2-QZVPP-RI-JK
def2-QZVPP-RI-JK
def2-QZVPP-RI-JK
def2-QZVPP-RI-JK
def2-QZVPP-RI-JK
def2-QZVPP-RI-JK
def2-QZVPP-RI-JK
def2-QZVPP-RI-JK
def2-QZVPP-RI-JK
def2-QZVPP-RI-JK
def2-QZVPP-RI-JK
def2-QZVPP-RI-JK
def2-QZVPP-RI-JK
def2-QZVPP-RI-JK
def2-QZVPP-RI-JK
nothing
nothing
nothing
nothing
nothing
nothing
nothing
nothing
nothing
nothing
nothing
nothing
nothing
nothing
nothing
nothing
nothing
nothing
nothing
nothing
nothing
nothing
nothing
nothing
nothing
nothing
nothing
nothing
nothing
nothing
nothing
nothing
nothing
nothing
nothing
nothing
nothing
nothing
nothing
nothing
nothing
nothing
nothing
nothing
nothing
nothing
nothing
nothing
nothing
nothing
nothing
nothing
nothing
nothing
nothing
nothing
nothing
nothing
nothing
nothing
nothing
nothing
nothing
nothing
nothing
nothing
nothing
nothing
nothing
nothing
nothing
nothing
nothing
nothing
nothing
nothing
nothing
nothing
nothing
nothing
nothing
nothing
nothing
nothing
nothing
nothing
nothing
nothing
nothing
nothing
nothing
nothing
nothing
nothing
nothing
nothing
nothing
nothing
nothing
nothing
nothing
nothing
nothing
nothing
nothing
nothing
nothing
nothing
nothing
nothing
nothing
nothing
nothing
nothing
nothing
nothing
nothing
nothing
nothing
nothing
nothing
nothing
nothing
nothing
nothing
nothing
nothing
nothing
nothing
nothing
nothing
nothing
nothing
nothing
nothing
nothing
nothing
nothing
nothing
nothing
nothing
nothing
nothing
nothing
nothing
nothing
nothing
nothing
nothing
nothing
nothing
nothing
nothing
nothing
nothing
nothing
nothing
nothing
nothing
nothing
nothing
nothing
nothing
nothing
nothing
nothing
nothing
nothing
nothing
nothing
nothing
nothing
nothing
nothing
nothing
nothing
nothing
nothing
nothing
nothing
nothing
nothing
nothing
nothing
nothing
nothing
nothing
nothing
nothing
nothing
nothing
nothing
nothing
nothing
nothing
nothing
nothing
nothing
nothing
nothing
nothing
nothing
nothing
nothing
nothing
nothing
nothing
nothing
nothing
nothing
nothing
nothing
nothing
nothing
nothing
nothing
nothing
nothing
nothing
nothing
nothing
nothing
nothing
nothing
nothing
nothing
nothing
nothing
nothing
nothing
nothing
nothing
nothing
nothing
nothing
nothing
nothing
nothing
nothing
nothing
nothing
nothing
nothing
nothing
nothing
nothing
nothing
nothing
nothing
nothing
nothing
nothing
nothing
nothing
nothing
nothing
nothing
nothing
nothing
nothing
nothing
nothing
nothing
nothing
nothing
nothing
nothing
nothing
nothing
nothing
nothing
nothing
nothing
nothing
nothing
nothing
nothing
nothing
nothing
nothing
nothing
nothing
nothing
nothing
nothing
nothing
nothing
nothing
nothing
nothing
nothing
nothing
nothing
nothing
nothing
nothing
nothing
nothing
nothing
nothing
nothing
nothing
nothing
nothing
nothing
nothing
nothing
nothing
nothing
nothing
nothing
nothing
nothing
nothing
nothing
nothing
nothing
nothing
nothing
nothing
nothing
nothing
nothing
nothing
nothing
nothing
nothing
nothing
nothing
nothing
nothing
nothing
nothing
nothing
nothing
nothing
nothing
nothing
nothing
nothing
nothing
nothing
nothing
nothing
nothing
nothing
nothing
nothing
nothing
nothing
nothing
nothing
nothing
nothing
nothing
nothing
nothing
nothing
nothing
nothing
nothing
nothing
nothing
nothing
nothing
nothing
nothing
nothing
nothing
nothing
nothing
nothing
nothing
nothing
nothing
nothing
nothing
nothing
nothing
nothing
nothing
nothing
nothing
nothing
nothing
nothing
nothing
nothing
nothing
nothing
nothing
nothing
nothing
nothing
nothing
nothing
nothing
nothing
nothing
nothing
nothing
nothing
nothing
nothing
nothing
nothing
nothing
nothing
nothing
nothing
nothing
nothing
nothing
nothing
nothing
nothing
nothing
nothing
nothing
nothing
nothing
nothing
nothing
nothing
nothing
nothing
nothing
nothing
nothing
nothing
nothing
nothing
nothing
nothing
nothing
nothing
nothing
nothing
nothing
nothing
nothing
nothing
nothing
nothing
nothing
nothing
nothing
nothing
nothing
nothing
nothing
nothing
nothing
nothing
nothing
nothing
nothing
nothing
nothing
nothing
nothing
nothing
nothing
nothing
nothing
nothing
nothing
nothing
nothing
nothing
nothing
nothing
nothing
nothing
nothing
nothing
nothing
nothing
nothing
nothing
nothing
nothing
nothing
nothing
nothing
nothing
nothing
nothing
nothing
nothing
nothing
nothing
nothing
nothing
nothing
nothing
nothing
nothing
nothing
nothing
nothing
nothing
nothing
nothing
nothing
nothing
nothing
nothing
nothing
nothing
nothing
nothing
nothing
nothing
nothing
nothing
nothing
nothing
nothing
nothing
nothing
nothing
nothing
nothing
nothing
nothing
nothing
nothing
nothing
nothing
nothing
nothing
nothing
nothing
nothing
nothing
nothing
nothing
nothing
nothing
nothing
nothing
nothing
nothing
nothing
nothing
nothing
nothing
nothing
nothing
nothing
nothing
nothing
nothing
nothing
nothing
nothing
nothing
nothing
nothing
nothing
nothing
nothing
nothing
nothing
nothing
nothing
nothing
nothing
nothing
nothing
nothing
nothing
nothing
nothing
nothing
nothing
nothing
nothing
nothing
nothing
nothing
nothing
nothing
nothing
nothing
nothing
nothing
nothing
nothing
nothing
nothing
nothing
nothing
nothing
nothing
nothing
nothing
nothing
nothing
nothing
nothing
nothing
nothing
nothing
nothing
nothing
nothing
nothing
nothing
nothing
nothing
nothing
nothing
nothing
nothing
nothing
nothing
nothing
nothing
nothing
nothing
nothing
nothing
nothing
nothing
nothing
nothing
nothing
nothing
nothing
nothing
nothing
nothing
nothing
nothing
nothing
nothing
nothing
nothing
nothing
nothing
nothing
nothing
nothing
nothing
nothing
nothing
nothing
nothing
nothing
nothing
nothing
nothing
nothing
nothing
nothing
nothing
nothing
nothing
nothing
nothing
nothing
nothing
nothing
nothing
nothing
nothing
nothing
nothing
nothing
nothing
nothing
nothing
nothing
nothing
nothing
nothing
nothing
nothing
nothing
nothing
nothing
nothing
nothing
nothing
nothing
nothing
nothing
nothing
nothing
nothing

ecp=special
none
none
none
none
none
none
none
none
none
none
none
none
none
none
none
none
none
none
none
none
none
none
none
none
none
none
none
none
none
none
none
none
none
none
none
none
none
none
none
none
none
none
none
none
none
none
none
none
none
none
none
none
none
none
none
none
none
none
none
none
none
none
none
none
none
none
none
none
none
none
none
none
none
none
none
none
none
none
none
none
none
none
none
none
none
none
none
none
none
none
none
none
none
none
none
none
none
none
none
none
none
none
none
none
none
none
none
none
none
none
none
none
none
none
none
none
none
none
none
none
none
none
none
none
none
none
none
none
none
none
none
none
none
none
none
none
none
none
none
none
none
none
none
none
none
none
none
none
none
none
none
none
none
none
none
none
none
none
none
none
none
none
none
none
none
none
none
none
none
none
none
none
none
none
none
none
none
none
none
none
none
none
none
none
none
none
none
none
none
none
none
none
none
none
none
none
none
none
none
none
none
none
none
none
none
none
none
none
none
ECP-10
ECP-10
ECP-10
ECP-10
ECP-10
ECP-10
ECP-10
ECP-10
ECP-10
ECP-10
ECP-10
ECP-10
ECP-10
ECP-10
ECP-10
ECP-10
ECP-10
ECP-10
ECP-10
ECP-10
ECP-10
ECP-10
ECP-10
ECP-10
ECP-10
ECP-10
ECP-10
ECP-10
ECP-10
ECP-10
ECP-10
ECP-10
ECP-10
ECP-10
ECP-10
ECP-10
ECP-10
ECP-10
ECP-10
ECP-10
ECP-10
ECP-10
ECP-10
ECP-10
ECP-10
ECP-10
ECP-10
ECP-10
ECP-10
ECP-10
ECP-10
ECP-10
ECP-10
ECP-10
ECP-10
ECP-10
ECP-10
ECP-10
ECP-10
ECP-10
ECP-10
ECP-10
ECP-10
ECP-10
ECP-10
ECP-10
ECP-10
ECP-10
ECP-10
ECP-10
ECP-10
ECP-10
ECP-10
ECP-10
ECP-10
ECP-10
ECP-10
ECP-10
ECP-10
ECP-10
ECP-10
ECP-10
ECP-10
ECP-10
ECP-10
ECP-10
ECP-10
ECP-10
ECP-10
ECP-10
ECP-10
ECP-10
ECP-10
ECP-10
ECP-10
ECP-10
ECP-10
ECP-10
ECP-10
ECP-10
ECP-10
ECP-10
ECP-10
ECP-10
ECP-10
ECP-10
ECP-10
ECP-10
ECP-10
ECP-10
ECP-10
ECP-10
ECP-10
ECP-10
ECP-10
ECP-10
ECP-10
ECP-10
ECP-10
ECP-10
ECP-10
ECP-10
ECP-10
ECP-10
ECP-10
ECP-10
ECP-10
ECP-10
ECP-10
ECP-10
ECP-10
ECP-10
ECP-10
ECP-10
ECP-10
ECP-10
ECP-10
ECP-10
ECP-10
ECP-10
ECP-10
ECP-10
ECP-10
ECP-10
ECP-10
ECP-10
ECP-10
ECP-10
ECP-10
ECP-10
ECP-10
ECP-10
ECP-10
ECP-10
ECP-10
ECP-10
ECP-10
ECP-10
ECP-10
ECP-10
ECP-10
ECP-10
ECP-10
ECP-10
ECP-10
ECP-10
ECP-10
ECP-10
ECP-10
ECP-10
ECP-10
ECP-10
ECP-10
ECP-10
ECP-10
ECP-10
ECP-10
ECP-10
ECP-10
ECP-10
ECP-10
ECP-10
ECP-10
ECP-10
ECP-10
ECP-10
ECP-10
ECP-10
ECP-10
ECP-10
ECP-10
ECP-10
ECP-10
ECP-10
ECP-10
ECP-10
ECP-10
ECP-10
ECP-10
ECP-10
ECP-10
ECP-10
ECP-10
ECP-10
ECP-10
ECP-10
ECP-10
ECP-10
ECP-10
ECP-10
ECP-10
ECP-10
ECP-10
ECP-10
ECP-10
ECP-10
ECP-10
ECP-10
ECP-10
ECP-10
ECP-10
ECP-10
ECP-10
ECP-10
ECP-10
ECP-10
ECP-10
ECP-10
ECP-10
ECP-10
ECP-10
ECP-10
ECP-10
ECP-10
ECP-10
ECP-10
ECP-10
ECP-10
ECP-10
ECP-10
ECP-10
ECP-10
ECP-10
ECP-10
ECP-10
ECP-10
ECP-10
ECP-10
ECP-10
ECP-10
ECP-10
ECP-10
ECP-10
ECP-10
ECP-10
ECP-10
ECP-10
ECP-10
ECP-10
ECP-10
ECP-10
ECP-10
ECP-10
ECP-10
ECP-10
ECP-10
ECP-10
ECP-10
ECP-10
ECP-10
ECP-10
ECP-10
ECP-10
ECP-10
ECP-10
ECP-10
ECP-10
ECP-10
ECP-10
ECP-10
ECP-10
ECP-10
ECP-10
ECP-10
ECP-10
ECP-10
ECP-10
ECP-10
ECP-10
ECP-10
ECP-10
ECP-10
ECP-10
ECP-10
ECP-10
ECP-10
ECP-10
ECP-10
ECP-10
ECP-10
ECP-10
ECP-10
ECP-10
ECP-10
ECP-10
ECP-10
ECP-10
ECP-10
ECP-10
ECP-10
ECP-10
ECP-10
ECP-10
ECP-10
ECP-10
ECP-10
ECP-10
ECP-10
ECP-10
ECP-10
ECP-10
ECP-10
ECP-10
ECP-10
ECP-10
ECP-10
ECP-10
ECP-10
ECP-10
ECP-10
ECP-10
ECP-10
ECP-10
ECP-10
ECP-10
ECP-10
ECP-10
ECP-10
ECP-10
ECP-10
ECP-10
ECP-10
ECP-10
ECP-10
ECP-10
ECP-10
ECP-10
ECP-10
ECP-10
ECP-10
ECP-10
ECP-10
ECP-10
ECP-10
ECP-10
ECP-10
ECP-10
ECP-10
ECP-10
ECP-10
ECP-10
ECP-10
ECP-10
ECP-10
ECP-10
ECP-10
ECP-10
ECP-10
ECP-10
ECP-10
ECP-10
ECP-10
ECP-10
ECP-10
ECP-10
ECP-10
ECP-10
ECP-10
ECP-10
ECP-10
ECP-10
ECP-10
ECP-10
ECP-10
ECP-10
ECP-10
ECP-10
ECP-10
ECP-10
ECP-10
ECP-10
ECP-10
ECP-10
ECP-10
ECP-10
ECP-10
ECP-10
ECP-10
ECP-10
ECP-10
ECP-10
ECP-10
ECP-10
ECP-10
ECP-10
ECP-10
ECP-10
ECP-10
ECP-10
ECP-10
ECP-10
ECP-10
ECP-10
ECP-10
ECP-10
ECP-10
ECP-10
ECP-10
ECP-10
ECP-10
ECP-10
ECP-10
ECP-10
ECP-10
ECP-10
ECP-10
ECP-10
ECP-10
ECP-10
ECP-10
ECP-10
ECP-10
ECP-10
ECP-10
ECP-10
ECP-10
ECP-10
ECP-10
ECP-10
ECP-10
ECP-10
ECP-10
ECP-10
ECP-10
ECP-10
ECP-10
ECP-10
ECP-10
ECP-10
ECP-10
ECP-10
ECP-10
ECP-10
ECP-10
ECP-10
ECP-10
ECP-10
ECP-10
ECP-10
ECP-10
ECP-10
ECP-10
ECP-10
ECP-10
ECP-10
ECP-10
ECP-10
ECP-10
ECP-10
ECP-10
ECP-10
ECP-10
ECP-10
ECP-10
ECP-10
ECP-10
ECP-10
ECP-10
ECP-10
ECP-10
ECP-10
ECP-10
ECP-10
ECP-10
ECP-10
ECP-10
ECP-10
ECP-10
ECP-10
ECP-10
ECP-10
ECP-10
ECP-10
ECP-10
ECP-10
ECP-10
ECP-10
ECP-10
ECP-10
ECP-10
ECP-10
ECP-10
ECP-10
ECP-10
ECP-10
ECP-10
ECP-10
ECP-10
ECP-10
ECP-10
ECP-10
ECP-10
ECP-10
ECP-10
ECP-10
ECP-10
ECP-10
ECP-10
ECP-10
ECP-10
ECP-10
ECP-10
ECP-10
ECP-10
ECP-10
ECP-10
ECP-10
ECP-10
ECP-10
ECP-10
ECP-10
ECP-10
ECP-10
ECP-10
ECP-10
ECP-10
ECP-10
ECP-10
ECP-10
ECP-10
ECP-10
ECP-10
ECP-10
ECP-10
ECP-10
ECP-10
ECP-10
ECP-10
ECP-10
ECP-10
ECP-10
ECP-10
ECP-10
ECP-10
ECP-10
ECP-10
ECP-10
ECP-10
ECP-10
ECP-10
ECP-10
ECP-10
ECP-10
ECP-10
ECP-10
ECP-10
ECP-10
ECP-10
ECP-10
ECP-10
ECP-10
ECP-10
ECP-10
ECP-10
ECP-10
ECP-10
ECP-10
ECP-10
ECP-10
ECP-10
ECP-10
ECP-10
ECP-10
ECP-10
ECP-10
ECP-10
ECP-10
ECP-10
ECP-10
ECP-10
ECP-10
ECP-10
ECP-10
ECP-10
ECP-10
ECP-10
ECP-10
ECP-10
ECP-10
ECP-10
ECP-10
ECP-10
ECP-10
ECP-10
ECP-10
ECP-10
ECP-10
ECP-10
ECP-10
ECP-10
ECP-10
ECP-10
ECP-10
ECP-10
ECP-10
ECP-10
ECP-10
ECP-10
ECP-10
ECP-10
ECP-10
ECP-10
ECP-10
ECP-10
ECP-10
ECP-10
ECP-10
ECP-10
ECP-10
ECP-10
ECP-10
ECP-10
ECP-10
ECP-10
ECP-10
ECP-10
ECP-10
ECP-10
ECP-10
ECP-10
ECP-10
ECP-10
ECP-10
ECP-10
ECP-10
ECP-10
ECP-10
ECP-10
ECP-10
ECP-10
ECP-10
ECP-10
ECP-10
ECP-10
ECP-10
ECP-10
ECP-10
ECP-10
ECP-10
ECP-10
ECP-10
ECP-10
ECP-10
ECP-10
ECP-10
ECP-10
ECP-10
ECP-10
ECP-10
ECP-10
ECP-10
ECP-10
ECP-10
ECP-10
ECP-10
ECP-10
ECP-10
ECP-10
ECP-10
ECP-10
ECP-10
ECP-10
ECP-10
ECP-10
ECP-10
ECP-10
ECP-10
ECP-10
ECP-10
ECP-10
ECP-10
ECP-10

unit=angs
geom=xyz
901

O     0.00000000000    0.00000000000    0.00000000000
Mg    0.00000000000    0.00000000000    2.10322906414
Mg   -2.10322906414    0.00000000000    0.00000000000
Mg    0.00000000000    2.10322906414    0.00000000000
Mg    2.10322906414    0.00000000000    0.00000000000
Mg    0.00000000000   -2.10322906414    0.00000000000
Mg    0.00000000000    0.00000000000   -2.10322906414
O    -2.10322906414    0.00000000000    2.10322906414
O     0.00000000000    2.10322906414    2.10322906414
O     2.10322906414    0.00000000000    2.10322906414
O     0.00000000000   -2.10322906414    2.10322906414
O    -2.10322906414    2.10322906414    0.00000000000
O     2.10322906414    2.10322906414    0.00000000000
O     2.10322906414   -2.10322906414    0.00000000000
O    -2.10322906414   -2.10322906414    0.00000000000
O    -2.10322906414    0.00000000000   -2.10322906414
O     0.00000000000    2.10322906414   -2.10322906414
O     2.10322906414    0.00000000000   -2.10322906414
O     0.00000000000   -2.10322906414   -2.10322906414
Mg   -2.10322906414    2.10322906414    2.10322906414
Mg    2.10322906414    2.10322906414    2.10322906414
Mg    2.10322906414   -2.10322906414    2.10322906414
Mg   -2.10322906414   -2.10322906414    2.10322906414
Mg   -2.10322906414    2.10322906414   -2.10322906414
Mg    2.10322906414    2.10322906414   -2.10322906414
Mg    2.10322906414   -2.10322906414   -2.10322906414
Mg   -2.10322906414   -2.10322906414   -2.10322906414
O     0.00000000000    0.00000000000    4.20645812828
O    -4.20645812828    0.00000000000    0.00000000000
O     0.00000000000    4.20645812828    0.00000000000
O     4.20645812828    0.00000000000    0.00000000000
O     0.00000000000   -4.20645812828    0.00000000000
O     0.00000000000    0.00000000000   -4.20645812828
Mg   -2.10322906414    0.00000000000    4.20645812828
Mg    0.00000000000    2.10322906414    4.20645812828
Mg    2.10322906414    0.00000000000    4.20645812828
Mg    0.00000000000   -2.10322906414    4.20645812828
Mg   -4.20645812828    0.00000000000    2.10322906414
Mg    0.00000000000    4.20645812828    2.10322906414
Mg    4.20645812828    0.00000000000    2.10322906414
Mg    0.00000000000   -4.20645812828    2.10322906414
Mg   -4.20645812828    2.10322906414    0.00000000000
Mg   -2.10322906414    4.20645812828    0.00000000000
Mg    2.10322906414    4.20645812828    0.00000000000
Mg    4.20645812828    2.10322906414    0.00000000000
Mg    4.20645812828   -2.10322906414    0.00000000000
Mg    2.10322906414   -4.20645812828    0.00000000000
Mg   -2.10322906414   -4.20645812828    0.00000000000
Mg   -4.20645812828   -2.10322906414    0.00000000000
Mg   -4.20645812828    0.00000000000   -2.10322906414
Mg    0.00000000000    4.20645812828   -2.10322906414
Mg    4.20645812828    0.00000000000   -2.10322906414
Mg    0.00000000000   -4.20645812828   -2.10322906414
Mg   -2.10322906414    0.00000000000   -4.20645812828
Mg    0.00000000000    2.10322906414   -4.20645812828
Mg    2.10322906414    0.00000000000   -4.20645812828
Mg    0.00000000000   -2.10322906414   -4.20645812828
O    -2.10322906414    2.10322906414    4.20645812828
O     2.10322906414    2.10322906414    4.20645812828
O     2.10322906414   -2.10322906414    4.20645812828
O    -2.10322906414   -2.10322906414    4.20645812828
O    -4.20645812828    2.10322906414    2.10322906414
O    -2.10322906414    4.20645812828    2.10322906414
O     2.10322906414    4.20645812828    2.10322906414
O     4.20645812828    2.10322906414    2.10322906414
O     4.20645812828   -2.10322906414    2.10322906414
O     2.10322906414   -4.20645812828    2.10322906414
O    -2.10322906414   -4.20645812828    2.10322906414
O    -4.20645812828   -2.10322906414    2.10322906414
O    -4.20645812828    2.10322906414   -2.10322906414
O    -2.10322906414    4.20645812828   -2.10322906414
O     2.10322906414    4.20645812828   -2.10322906414
O     4.20645812828    2.10322906414   -2.10322906414
O     4.20645812828   -2.10322906414   -2.10322906414
O     2.10322906414   -4.20645812828   -2.10322906414
O    -2.10322906414   -4.20645812828   -2.10322906414
O    -4.20645812828   -2.10322906414   -2.10322906414
O    -2.10322906414    2.10322906414   -4.20645812828
O     2.10322906414    2.10322906414   -4.20645812828
O     2.10322906414   -2.10322906414   -4.20645812828
O    -2.10322906414   -2.10322906414   -4.20645812828
O    -4.20645812828    0.00000000000    4.20645812828
O     0.00000000000    4.20645812828    4.20645812828
O     4.20645812828    0.00000000000    4.20645812828
O     0.00000000000   -4.20645812828    4.20645812828
O    -4.20645812828    4.20645812828    0.00000000000
O     4.20645812828    4.20645812828    0.00000000000
O     4.20645812828   -4.20645812828    0.00000000000
O    -4.20645812828   -4.20645812828    0.00000000000
O    -4.20645812828    0.00000000000   -4.20645812828
O     0.00000000000    4.20645812828   -4.20645812828
O     4.20645812828    0.00000000000   -4.20645812828
O     0.00000000000   -4.20645812828   -4.20645812828
Mg    0.00000000000    0.00000000000    6.30968719243
Mg   -4.20645812828    2.10322906414    4.20645812828
Mg   -2.10322906414    4.20645812828    4.20645812828
Mg    2.10322906414    4.20645812828    4.20645812828
Mg    4.20645812828    2.10322906414    4.20645812828
Mg    4.20645812828   -2.10322906414    4.20645812828
Mg    2.10322906414   -4.20645812828    4.20645812828
Mg   -2.10322906414   -4.20645812828    4.20645812828
Mg   -4.20645812828   -2.10322906414    4.20645812828
Mg   -4.20645812828    4.20645812828    2.10322906414
Mg    4.20645812828    4.20645812828    2.10322906414
Mg    4.20645812828   -4.20645812828    2.10322906414
Mg   -4.20645812828   -4.20645812828    2.10322906414
Mg   -6.30968719243    0.00000000000    0.00000000000
Mg    0.00000000000    6.30968719243    0.00000000000
Mg    6.30968719243    0.00000000000    0.00000000000
Mg    0.00000000000   -6.30968719243    0.00000000000
Mg   -4.20645812828    4.20645812828   -2.10322906414
Mg    4.20645812828    4.20645812828   -2.10322906414
Mg    4.20645812828   -4.20645812828   -2.10322906414
Mg   -4.20645812828   -4.20645812828   -2.10322906414
Mg   -4.20645812828    2.10322906414   -4.20645812828
Mg   -2.10322906414    4.20645812828   -4.20645812828
Mg    2.10322906414    4.20645812828   -4.20645812828
Mg    4.20645812828    2.10322906414   -4.20645812828
Mg    4.20645812828   -2.10322906414   -4.20645812828
Mg    2.10322906414   -4.20645812828   -4.20645812828
Mg   -2.10322906414   -4.20645812828   -4.20645812828
Mg   -4.20645812828   -2.10322906414   -4.20645812828
Mg    0.00000000000    0.00000000000   -6.30968719243
O    -2.10322906414    0.00000000000    6.30968719243
O     0.00000000000    2.10322906414    6.30968719243
O     2.10322906414    0.00000000000    6.30968719243
O     0.00000000000   -2.10322906414    6.30968719243
O    -6.30968719243    0.00000000000    2.10322906414
O     0.00000000000    6.30968719243    2.10322906414
O     6.30968719243    0.00000000000    2.10322906414
O     0.00000000000   -6.30968719243    2.10322906414
O    -6.30968719243    2.10322906414    0.00000000000
O    -2.10322906414    6.30968719243    0.00000000000
O     2.10322906414    6.30968719243    0.00000000000
O     6.30968719243    2.10322906414    0.00000000000
O     6.30968719243   -2.10322906414    0.00000000000
O     2.10322906414   -6.30968719243    0.00000000000
O    -2.10322906414   -6.30968719243    0.00000000000
O    -6.30968719243   -2.10322906414    0.00000000000
O    -6.30968719243    0.00000000000   -2.10322906414
O     0.00000000000    6.30968719243   -2.10322906414
O     6.30968719243    0.00000000000   -2.10322906414
O     0.00000000000   -6.30968719243   -2.10322906414
O    -2.10322906414    0.00000000000   -6.30968719243
O     0.00000000000    2.10322906414   -6.30968719243
O     2.10322906414    0.00000000000   -6.30968719243
O     0.00000000000   -2.10322906414   -6.30968719243
O    -4.20645812828    4.20645812828    4.20645812828
O     4.20645812828    4.20645812828    4.20645812828
O     4.20645812828   -4.20645812828    4.20645812828
O    -4.20645812828   -4.20645812828    4.20645812828
O    -4.20645812828    4.20645812828   -4.20645812828
O     4.20645812828    4.20645812828   -4.20645812828
O     4.20645812828   -4.20645812828   -4.20645812828
O    -4.20645812828   -4.20645812828   -4.20645812828
O    -4.20645812828    2.10322906414    6.30968719243
O    -2.10322906414    4.20645812828    6.30968719243
O     2.10322906414    4.20645812828    6.30968719243
O     4.20645812828    2.10322906414    6.30968719243
O     4.20645812828   -2.10322906414    6.30968719243
O     2.10322906414   -4.20645812828    6.30968719243
O    -2.10322906414   -4.20645812828    6.30968719243
O    -4.20645812828   -2.10322906414    6.30968719243
O    -6.30968719243    2.10322906414    4.20645812828
O    -2.10322906414    6.30968719243    4.20645812828
O     2.10322906414    6.30968719243    4.20645812828
O     6.30968719243    2.10322906414    4.20645812828
O     6.30968719243   -2.10322906414    4.20645812828
O     2.10322906414   -6.30968719243    4.20645812828
O    -2.10322906414   -6.30968719243    4.20645812828
O    -6.30968719243   -2.10322906414    4.20645812828
O    -6.30968719243    4.20645812828    2.10322906414
O    -4.20645812828    6.30968719243    2.10322906414
O     4.20645812828    6.30968719243    2.10322906414
O     6.30968719243    4.20645812828    2.10322906414
O     6.30968719243   -4.20645812828    2.10322906414
O     4.20645812828   -6.30968719243    2.10322906414
O    -4.20645812828   -6.30968719243    2.10322906414
O    -6.30968719243   -4.20645812828    2.10322906414
O    -6.30968719243    4.20645812828   -2.10322906414
O    -4.20645812828    6.30968719243   -2.10322906414
O     4.20645812828    6.30968719243   -2.10322906414
O     6.30968719243    4.20645812828   -2.10322906414
O     6.30968719243   -4.20645812828   -2.10322906414
O     4.20645812828   -6.30968719243   -2.10322906414
O    -4.20645812828   -6.30968719243   -2.10322906414
O    -6.30968719243   -4.20645812828   -2.10322906414
O    -6.30968719243    2.10322906414   -4.20645812828
O    -2.10322906414    6.30968719243   -4.20645812828
O     2.10322906414    6.30968719243   -4.20645812828
O     6.30968719243    2.10322906414   -4.20645812828
O     6.30968719243   -2.10322906414   -4.20645812828
O     2.10322906414   -6.30968719243   -4.20645812828
O    -2.10322906414   -6.30968719243   -4.20645812828
O    -6.30968719243   -2.10322906414   -4.20645812828
O    -4.20645812828    2.10322906414   -6.30968719243
O    -2.10322906414    4.20645812828   -6.30968719243
O     2.10322906414    4.20645812828   -6.30968719243
O     4.20645812828    2.10322906414   -6.30968719243
O     4.20645812828   -2.10322906414   -6.30968719243
O     2.10322906414   -4.20645812828   -6.30968719243
O    -2.10322906414   -4.20645812828   -6.30968719243
O    -4.20645812828   -2.10322906414   -6.30968719243
O     0.00000000000    0.00000000000    8.41291625657
O    -8.41291625657    0.00000000000    0.00000000000
O     0.00000000000    8.41291625657    0.00000000000
O     8.41291625657    0.00000000000    0.00000000000
O     0.00000000000   -8.41291625657    0.00000000000
O     0.00000000000    0.00000000000   -8.41291625657
Mg   -2.10322906414    2.10322906414    6.30968719243
Mg    2.10322906414    2.10322906414    6.30968719243
Mg    2.10322906414   -2.10322906414    6.30968719243
Mg   -2.10322906414   -2.10322906414    6.30968719243
Mg   -6.30968719243    2.10322906414    2.10322906414
Mg   -2.10322906414    6.30968719243    2.10322906414
Mg    2.10322906414    6.30968719243    2.10322906414
Mg    6.30968719243    2.10322906414    2.10322906414
Mg    6.30968719243   -2.10322906414    2.10322906414
Mg    2.10322906414   -6.30968719243    2.10322906414
Mg   -2.10322906414   -6.30968719243    2.10322906414
Mg   -6.30968719243   -2.10322906414    2.10322906414
Mg   -6.30968719243    2.10322906414   -2.10322906414
Mg   -2.10322906414    6.30968719243   -2.10322906414
Mg    2.10322906414    6.30968719243   -2.10322906414
Mg    6.30968719243    2.10322906414   -2.10322906414
Mg    6.30968719243   -2.10322906414   -2.10322906414
Mg    2.10322906414   -6.30968719243   -2.10322906414
Mg   -2.10322906414   -6.30968719243   -2.10322906414
Mg   -6.30968719243   -2.10322906414   -2.10322906414
Mg   -2.10322906414    2.10322906414   -6.30968719243
Mg    2.10322906414    2.10322906414   -6.30968719243
Mg    2.10322906414   -2.10322906414   -6.30968719243
Mg   -2.10322906414   -2.10322906414   -6.30968719243
Mg   -4.20645812828    0.00000000000    6.30968719243
Mg    0.00000000000    4.20645812828    6.30968719243
Mg    4.20645812828    0.00000000000    6.30968719243
Mg    0.00000000000   -4.20645812828    6.30968719243
Mg   -6.30968719243    0.00000000000    4.20645812828
Mg    0.00000000000    6.30968719243    4.20645812828
Mg    6.30968719243    0.00000000000    4.20645812828
Mg    0.00000000000   -6.30968719243    4.20645812828
Mg   -6.30968719243    4.20645812828    0.00000000000
Mg   -4.20645812828    6.30968719243    0.00000000000
Mg    4.20645812828    6.30968719243    0.00000000000
Mg    6.30968719243    4.20645812828    0.00000000000
Mg    6.30968719243   -4.20645812828    0.00000000000
Mg    4.20645812828   -6.30968719243    0.00000000000
Mg   -4.20645812828   -6.30968719243    0.00000000000
Mg   -6.30968719243   -4.20645812828    0.00000000000
Mg   -6.30968719243    0.00000000000   -4.20645812828
Mg    0.00000000000    6.30968719243   -4.20645812828
Mg    6.30968719243    0.00000000000   -4.20645812828
Mg    0.00000000000   -6.30968719243   -4.20645812828
Mg   -4.20645812828    0.00000000000   -6.30968719243
Mg    0.00000000000    4.20645812828   -6.30968719243
Mg    4.20645812828    0.00000000000   -6.30968719243
Mg    0.00000000000   -4.20645812828   -6.30968719243
Mg   -2.10322906414    0.00000000000    8.41291625657
Mg    0.00000000000    2.10322906414    8.41291625657
Mg    2.10322906414    0.00000000000    8.41291625657
Mg    0.00000000000   -2.10322906414    8.41291625657
Mg   -4.20645812828    4.20645812828    6.30968719243
Mg    4.20645812828    4.20645812828    6.30968719243
Mg    4.20645812828   -4.20645812828    6.30968719243
Mg   -4.20645812828   -4.20645812828    6.30968719243
Mg   -6.30968719243    4.20645812828    4.20645812828
Mg   -4.20645812828    6.30968719243    4.20645812828
Mg    4.20645812828    6.30968719243    4.20645812828
Mg    6.30968719243    4.20645812828    4.20645812828
Mg    6.30968719243   -4.20645812828    4.20645812828
Mg    4.20645812828   -6.30968719243    4.20645812828
Mg   -4.20645812828   -6.30968719243    4.20645812828
Mg   -6.30968719243   -4.20645812828    4.20645812828
Mg   -8.41291625657    0.00000000000    2.10322906414
Mg    0.00000000000    8.41291625657    2.10322906414
Mg    8.41291625657    0.00000000000    2.10322906414
Mg    0.00000000000   -8.41291625657    2.10322906414
Mg   -8.41291625657    2.10322906414    0.00000000000
Mg   -2.10322906414    8.41291625657    0.00000000000
Mg    2.10322906414    8.41291625657    0.00000000000
Mg    8.41291625657    2.10322906414    0.00000000000
Mg    8.41291625657   -2.10322906414    0.00000000000
Mg    2.10322906414   -8.41291625657    0.00000000000
Mg   -2.10322906414   -8.41291625657    0.00000000000
Mg   -8.41291625657   -2.10322906414    0.00000000000
Mg   -8.41291625657    0.00000000000   -2.10322906414
Mg    0.00000000000    8.41291625657   -2.10322906414
Mg    8.41291625657    0.00000000000   -2.10322906414
Mg    0.00000000000   -8.41291625657   -2.10322906414
Mg   -6.30968719243    4.20645812828   -4.20645812828
Mg   -4.20645812828    6.30968719243   -4.20645812828
Mg    4.20645812828    6.30968719243   -4.20645812828
Mg    6.30968719243    4.20645812828   -4.20645812828
Mg    6.30968719243   -4.20645812828   -4.20645812828
Mg    4.20645812828   -6.30968719243   -4.20645812828
Mg   -4.20645812828   -6.30968719243   -4.20645812828
Mg   -6.30968719243   -4.20645812828   -4.20645812828
Mg   -4.20645812828    4.20645812828   -6.30968719243
Mg    4.20645812828    4.20645812828   -6.30968719243
Mg    4.20645812828   -4.20645812828   -6.30968719243
Mg   -4.20645812828   -4.20645812828   -6.30968719243
Mg   -2.10322906414    0.00000000000   -8.41291625657
Mg    0.00000000000    2.10322906414   -8.41291625657
Mg    2.10322906414    0.00000000000   -8.41291625657
Mg    0.00000000000   -2.10322906414   -8.41291625657
Mg   -6.30968719243    2.10322906414    6.30968719243
Mg   -2.10322906414    6.30968719243    6.30968719243
Mg    2.10322906414    6.30968719243    6.30968719243
Mg    6.30968719243    2.10322906414    6.30968719243
Mg    6.30968719243   -2.10322906414    6.30968719243
Mg    2.10322906414   -6.30968719243    6.30968719243
Mg   -2.10322906414   -6.30968719243    6.30968719243
Mg   -6.30968719243   -2.10322906414    6.30968719243
Mg   -6.30968719243    6.30968719243    2.10322906414
Mg    6.30968719243    6.30968719243    2.10322906414
Mg    6.30968719243   -6.30968719243    2.10322906414
Mg   -6.30968719243   -6.30968719243    2.10322906414
Mg   -6.30968719243    6.30968719243   -2.10322906414
Mg    6.30968719243    6.30968719243   -2.10322906414
Mg    6.30968719243   -6.30968719243   -2.10322906414
Mg   -6.30968719243   -6.30968719243   -2.10322906414
Mg   -6.30968719243    2.10322906414   -6.30968719243
Mg   -2.10322906414    6.30968719243   -6.30968719243
Mg    2.10322906414    6.30968719243   -6.30968719243
Mg    6.30968719243    2.10322906414   -6.30968719243
Mg    6.30968719243   -2.10322906414   -6.30968719243
Mg    2.10322906414   -6.30968719243   -6.30968719243
Mg   -2.10322906414   -6.30968719243   -6.30968719243
Mg   -6.30968719243   -2.10322906414   -6.30968719243
Mg   -4.20645812828    2.10322906414    8.41291625657
Mg   -2.10322906414    4.20645812828    8.41291625657
Mg    2.10322906414    4.20645812828    8.41291625657
Mg    4.20645812828    2.10322906414    8.41291625657
Mg    4.20645812828   -2.10322906414    8.41291625657
Mg    2.10322906414   -4.20645812828    8.41291625657
Mg   -2.10322906414   -4.20645812828    8.41291625657
Mg   -4.20645812828   -2.10322906414    8.41291625657
Mg   -8.41291625657    2.10322906414    4.20645812828
Mg   -2.10322906414    8.41291625657    4.20645812828
Mg    2.10322906414    8.41291625657    4.20645812828
Mg    8.41291625657    2.10322906414    4.20645812828
Mg    8.41291625657   -2.10322906414    4.20645812828
Mg    2.10322906414   -8.41291625657    4.20645812828
Mg   -2.10322906414   -8.41291625657    4.20645812828
Mg   -8.41291625657   -2.10322906414    4.20645812828
Mg   -8.41291625657    4.20645812828    2.10322906414
Mg   -4.20645812828    8.41291625657    2.10322906414
Mg    4.20645812828    8.41291625657    2.10322906414
Mg    8.41291625657    4.20645812828    2.10322906414
Mg    8.41291625657   -4.20645812828    2.10322906414
Mg    4.20645812828   -8.41291625657    2.10322906414
Mg   -4.20645812828   -8.41291625657    2.10322906414
Mg   -8.41291625657   -4.20645812828    2.10322906414
Mg   -8.41291625657    4.20645812828   -2.10322906414
Mg   -4.20645812828    8.41291625657   -2.10322906414
Mg    4.20645812828    8.41291625657   -2.10322906414
Mg    8.41291625657    4.20645812828   -2.10322906414
Mg    8.41291625657   -4.20645812828   -2.10322906414
Mg    4.20645812828   -8.41291625657   -2.10322906414
Mg   -4.20645812828   -8.41291625657   -2.10322906414
Mg   -8.41291625657   -4.20645812828   -2.10322906414
Mg   -8.41291625657    2.10322906414   -4.20645812828
Mg   -2.10322906414    8.41291625657   -4.20645812828
Mg    2.10322906414    8.41291625657   -4.20645812828
Mg    8.41291625657    2.10322906414   -4.20645812828
Mg    8.41291625657   -2.10322906414   -4.20645812828
Mg    2.10322906414   -8.41291625657   -4.20645812828
Mg   -2.10322906414   -8.41291625657   -4.20645812828
Mg   -8.41291625657   -2.10322906414   -4.20645812828
Mg   -4.20645812828    2.10322906414   -8.41291625657
Mg   -2.10322906414    4.20645812828   -8.41291625657
Mg    2.10322906414    4.20645812828   -8.41291625657
Mg    4.20645812828    2.10322906414   -8.41291625657
Mg    4.20645812828   -2.10322906414   -8.41291625657
Mg    2.10322906414   -4.20645812828   -8.41291625657
Mg   -2.10322906414   -4.20645812828   -8.41291625657
Mg   -4.20645812828   -2.10322906414   -8.41291625657
Mg    0.00000000000    0.00000000000   10.51614532071
Mg   -6.30968719243    0.00000000000    8.41291625657
Mg    0.00000000000    6.30968719243    8.41291625657
Mg    6.30968719243    0.00000000000    8.41291625657
Mg    0.00000000000   -6.30968719243    8.41291625657
Mg   -8.41291625657    0.00000000000    6.30968719243
Mg    0.00000000000    8.41291625657    6.30968719243
Mg    8.41291625657    0.00000000000    6.30968719243
Mg    0.00000000000   -8.41291625657    6.30968719243
Mg  -10.51614532071    0.00000000000    0.00000000000
Mg   -8.41291625657    6.30968719243    0.00000000000
Mg   -6.30968719243    8.41291625657    0.00000000000
Mg    0.00000000000   10.51614532071    0.00000000000
Mg    6.30968719243    8.41291625657    0.00000000000
Mg    8.41291625657    6.30968719243    0.00000000000
Mg   10.51614532071    0.00000000000    0.00000000000
Mg    8.41291625657   -6.30968719243    0.00000000000
Mg    6.30968719243   -8.41291625657    0.00000000000
Mg    0.00000000000  -10.51614532071    0.00000000000
Mg   -6.30968719243   -8.41291625657    0.00000000000
Mg   -8.41291625657   -6.30968719243    0.00000000000
Mg   -8.41291625657    0.00000000000   -6.30968719243
Mg    0.00000000000    8.41291625657   -6.30968719243
Mg    8.41291625657    0.00000000000   -6.30968719243
Mg    0.00000000000   -8.41291625657   -6.30968719243
Mg   -6.30968719243    0.00000000000   -8.41291625657
Mg    0.00000000000    6.30968719243   -8.41291625657
Mg    6.30968719243    0.00000000000   -8.41291625657
Mg    0.00000000000   -6.30968719243   -8.41291625657
Mg    0.00000000000    0.00000000000  -10.51614532071
Mg   -2.10322906414    2.10322906414   10.51614532071
Mg    2.10322906414    2.10322906414   10.51614532071
Mg    2.10322906414   -2.10322906414   10.51614532071
Mg   -2.10322906414   -2.10322906414   10.51614532071
Mg   -6.30968719243    6.30968719243    6.30968719243
Mg    6.30968719243    6.30968719243    6.30968719243
Mg    6.30968719243   -6.30968719243    6.30968719243
Mg   -6.30968719243   -6.30968719243    6.30968719243
Mg  -10.51614532071    2.10322906414    2.10322906414
Mg   -2.10322906414   10.51614532071    2.10322906414
Mg    2.10322906414   10.51614532071    2.10322906414
Mg   10.51614532071    2.10322906414    2.10322906414
Mg   10.51614532071   -2.10322906414    2.10322906414
Mg    2.10322906414  -10.51614532071    2.10322906414
Mg   -2.10322906414  -10.51614532071    2.10322906414
Mg  -10.51614532071   -2.10322906414    2.10322906414
Mg  -10.51614532071    2.10322906414   -2.10322906414
Mg   -2.10322906414   10.51614532071   -2.10322906414
Mg    2.10322906414   10.51614532071   -2.10322906414
Mg   10.51614532071    2.10322906414   -2.10322906414
Mg   10.51614532071   -2.10322906414   -2.10322906414
Mg    2.10322906414  -10.51614532071   -2.10322906414
Mg   -2.10322906414  -10.51614532071   -2.10322906414
Mg  -10.51614532071   -2.10322906414   -2.10322906414
Mg   -6.30968719243    6.30968719243   -6.30968719243
Mg    6.30968719243    6.30968719243   -6.30968719243
Mg    6.30968719243   -6.30968719243   -6.30968719243
Mg   -6.30968719243   -6.30968719243   -6.30968719243
Mg   -2.10322906414    2.10322906414  -10.51614532071
Mg    2.10322906414    2.10322906414  -10.51614532071
Mg    2.10322906414   -2.10322906414  -10.51614532071
Mg   -2.10322906414   -2.10322906414  -10.51614532071
Mg   -4.20645812828    0.00000000000   10.51614532071
Mg    0.00000000000    4.20645812828   10.51614532071
Mg    4.20645812828    0.00000000000   10.51614532071
Mg    0.00000000000   -4.20645812828   10.51614532071
Mg   -6.30968719243    4.20645812828    8.41291625657
Mg   -4.20645812828    6.30968719243    8.41291625657
Mg    4.20645812828    6.30968719243    8.41291625657
Mg    6.30968719243    4.20645812828    8.41291625657
Mg    6.30968719243   -4.20645812828    8.41291625657
Mg    4.20645812828   -6.30968719243    8.41291625657
Mg   -4.20645812828   -6.30968719243    8.41291625657
Mg   -6.30968719243   -4.20645812828    8.41291625657
Mg   -8.41291625657    4.20645812828    6.30968719243
Mg   -4.20645812828    8.41291625657    6.30968719243
Mg    4.20645812828    8.41291625657    6.30968719243
Mg    8.41291625657    4.20645812828    6.30968719243
Mg    8.41291625657   -4.20645812828    6.30968719243
Mg    4.20645812828   -8.41291625657    6.30968719243
Mg   -4.20645812828   -8.41291625657    6.30968719243
Mg   -8.41291625657   -4.20645812828    6.30968719243
Mg  -10.51614532071    0.00000000000    4.20645812828
Mg   -8.41291625657    6.30968719243    4.20645812828
Mg   -6.30968719243    8.41291625657    4.20645812828
Mg    0.00000000000   10.51614532071    4.20645812828
Mg    6.30968719243    8.41291625657    4.20645812828
Mg    8.41291625657    6.30968719243    4.20645812828
Mg   10.51614532071    0.00000000000    4.20645812828
Mg    8.41291625657   -6.30968719243    4.20645812828
Mg    6.30968719243   -8.41291625657    4.20645812828
Mg    0.00000000000  -10.51614532071    4.20645812828
Mg   -6.30968719243   -8.41291625657    4.20645812828
Mg   -8.41291625657   -6.30968719243    4.20645812828
Mg  -10.51614532071    4.20645812828    0.00000000000
Mg   -4.20645812828   10.51614532071    0.00000000000
Mg    4.20645812828   10.51614532071    0.00000000000
Mg   10.51614532071    4.20645812828    0.00000000000
Mg   10.51614532071   -4.20645812828    0.00000000000
Mg    4.20645812828  -10.51614532071    0.00000000000
Mg   -4.20645812828  -10.51614532071    0.00000000000
Mg  -10.51614532071   -4.20645812828    0.00000000000
Mg  -10.51614532071    0.00000000000   -4.20645812828
Mg   -8.41291625657    6.30968719243   -4.20645812828
Mg   -6.30968719243    8.41291625657   -4.20645812828
Mg    0.00000000000   10.51614532071   -4.20645812828
Mg    6.30968719243    8.41291625657   -4.20645812828
Mg    8.41291625657    6.30968719243   -4.20645812828
Mg   10.51614532071    0.00000000000   -4.20645812828
Mg    8.41291625657   -6.30968719243   -4.20645812828
Mg    6.30968719243   -8.41291625657   -4.20645812828
Mg    0.00000000000  -10.51614532071   -4.20645812828
Mg   -6.30968719243   -8.41291625657   -4.20645812828
Mg   -8.41291625657   -6.30968719243   -4.20645812828
Mg   -8.41291625657    4.20645812828   -6.30968719243
Mg   -4.20645812828    8.41291625657   -6.30968719243
Mg    4.20645812828    8.41291625657   -6.30968719243
Mg    8.41291625657    4.20645812828   -6.30968719243
Mg    8.41291625657   -4.20645812828   -6.30968719243
Mg    4.20645812828   -8.41291625657   -6.30968719243
Mg   -4.20645812828   -8.41291625657   -6.30968719243
Mg   -8.41291625657   -4.20645812828   -6.30968719243
Mg   -6.30968719243    4.20645812828   -8.41291625657
Mg   -4.20645812828    6.30968719243   -8.41291625657
Mg    4.20645812828    6.30968719243   -8.41291625657
Mg    6.30968719243    4.20645812828   -8.41291625657
Mg    6.30968719243   -4.20645812828   -8.41291625657
Mg    4.20645812828   -6.30968719243   -8.41291625657
Mg   -4.20645812828   -6.30968719243   -8.41291625657
Mg   -6.30968719243   -4.20645812828   -8.41291625657
Mg   -4.20645812828    0.00000000000  -10.51614532071
Mg    0.00000000000    4.20645812828  -10.51614532071
Mg    4.20645812828    0.00000000000  -10.51614532071
Mg    0.00000000000   -4.20645812828  -10.51614532071
Mg   -4.20645812828    4.20645812828   10.51614532071
Mg    4.20645812828    4.20645812828   10.51614532071
Mg    4.20645812828   -4.20645812828   10.51614532071
Mg   -4.20645812828   -4.20645812828   10.51614532071
Mg   -8.41291625657    2.10322906414    8.41291625657
Mg   -2.10322906414    8.41291625657    8.41291625657
Mg    2.10322906414    8.41291625657    8.41291625657
Mg    8.41291625657    2.10322906414    8.41291625657
Mg    8.41291625657   -2.10322906414    8.41291625657
Mg    2.10322906414   -8.41291625657    8.41291625657
Mg   -2.10322906414   -8.41291625657    8.41291625657
Mg   -8.41291625657   -2.10322906414    8.41291625657
Mg  -10.51614532071    4.20645812828    4.20645812828
Mg   -4.20645812828   10.51614532071    4.20645812828
Mg    4.20645812828   10.51614532071    4.20645812828
Mg   10.51614532071    4.20645812828    4.20645812828
Mg   10.51614532071   -4.20645812828    4.20645812828
Mg    4.20645812828  -10.51614532071    4.20645812828
Mg   -4.20645812828  -10.51614532071    4.20645812828
Mg  -10.51614532071   -4.20645812828    4.20645812828
Mg   -8.41291625657    8.41291625657    2.10322906414
Mg    8.41291625657    8.41291625657    2.10322906414
Mg    8.41291625657   -8.41291625657    2.10322906414
Mg   -8.41291625657   -8.41291625657    2.10322906414
Mg   -8.41291625657    8.41291625657   -2.10322906414
Mg    8.41291625657    8.41291625657   -2.10322906414
Mg    8.41291625657   -8.41291625657   -2.10322906414
Mg   -8.41291625657   -8.41291625657   -2.10322906414
Mg  -10.51614532071    4.20645812828   -4.20645812828
Mg   -4.20645812828   10.51614532071   -4.20645812828
Mg    4.20645812828   10.51614532071   -4.20645812828
Mg   10.51614532071    4.20645812828   -4.20645812828
Mg   10.51614532071   -4.20645812828   -4.20645812828
Mg    4.20645812828  -10.51614532071   -4.20645812828
Mg   -4.20645812828  -10.51614532071   -4.20645812828
Mg  -10.51614532071   -4.20645812828   -4.20645812828
Mg   -8.41291625657    2.10322906414   -8.41291625657
Mg   -2.10322906414    8.41291625657   -8.41291625657
Mg    2.10322906414    8.41291625657   -8.41291625657
Mg    8.41291625657    2.10322906414   -8.41291625657
Mg    8.41291625657   -2.10322906414   -8.41291625657
Mg    2.10322906414   -8.41291625657   -8.41291625657
Mg   -2.10322906414   -8.41291625657   -8.41291625657
Mg   -8.41291625657   -2.10322906414   -8.41291625657
Mg   -4.20645812828    4.20645812828  -10.51614532071
Mg    4.20645812828    4.20645812828  -10.51614532071
Mg    4.20645812828   -4.20645812828  -10.51614532071
Mg   -4.20645812828   -4.20645812828  -10.51614532071
Mg   -6.30968719243    2.10322906414   10.51614532071
Mg   -2.10322906414    6.30968719243   10.51614532071
Mg    2.10322906414    6.30968719243   10.51614532071
Mg    6.30968719243    2.10322906414   10.51614532071
Mg    6.30968719243   -2.10322906414   10.51614532071
Mg    2.10322906414   -6.30968719243   10.51614532071
Mg   -2.10322906414   -6.30968719243   10.51614532071
Mg   -6.30968719243   -2.10322906414   10.51614532071
Mg  -10.51614532071    2.10322906414    6.30968719243
Mg   -2.10322906414   10.51614532071    6.30968719243
Mg    2.10322906414   10.51614532071    6.30968719243
Mg   10.51614532071    2.10322906414    6.30968719243
Mg   10.51614532071   -2.10322906414    6.30968719243
Mg    2.10322906414  -10.51614532071    6.30968719243
Mg   -2.10322906414  -10.51614532071    6.30968719243
Mg  -10.51614532071   -2.10322906414    6.30968719243
Mg  -10.51614532071    6.30968719243    2.10322906414
Mg   -6.30968719243   10.51614532071    2.10322906414
Mg    6.30968719243   10.51614532071    2.10322906414
Mg   10.51614532071    6.30968719243    2.10322906414
Mg   10.51614532071   -6.30968719243    2.10322906414
Mg    6.30968719243  -10.51614532071    2.10322906414
Mg   -6.30968719243  -10.51614532071    2.10322906414
Mg  -10.51614532071   -6.30968719243    2.10322906414
Mg  -10.51614532071    6.30968719243   -2.10322906414
Mg   -6.30968719243   10.51614532071   -2.10322906414
Mg    6.30968719243   10.51614532071   -2.10322906414
Mg   10.51614532071    6.30968719243   -2.10322906414
Mg   10.51614532071   -6.30968719243   -2.10322906414
Mg    6.30968719243  -10.51614532071   -2.10322906414
Mg   -6.30968719243  -10.51614532071   -2.10322906414
Mg  -10.51614532071   -6.30968719243   -2.10322906414
Mg  -10.51614532071    2.10322906414   -6.30968719243
Mg   -2.10322906414   10.51614532071   -6.30968719243
Mg    2.10322906414   10.51614532071   -6.30968719243
Mg   10.51614532071    2.10322906414   -6.30968719243
Mg   10.51614532071   -2.10322906414   -6.30968719243
Mg    2.10322906414  -10.51614532071   -6.30968719243
Mg   -2.10322906414  -10.51614532071   -6.30968719243
Mg  -10.51614532071   -2.10322906414   -6.30968719243
Mg   -6.30968719243    2.10322906414  -10.51614532071
Mg   -2.10322906414    6.30968719243  -10.51614532071
Mg    2.10322906414    6.30968719243  -10.51614532071
Mg    6.30968719243    2.10322906414  -10.51614532071
Mg    6.30968719243   -2.10322906414  -10.51614532071
Mg    2.10322906414   -6.30968719243  -10.51614532071
Mg   -2.10322906414   -6.30968719243  -10.51614532071
Mg   -6.30968719243   -2.10322906414  -10.51614532071
Mg   -2.10322906414    0.00000000000   12.61937438485
Mg    0.00000000000    2.10322906414   12.61937438485
Mg    2.10322906414    0.00000000000   12.61937438485
Mg    0.00000000000   -2.10322906414   12.61937438485
Mg  -12.61937438485    0.00000000000    2.10322906414
Mg    0.00000000000   12.61937438485    2.10322906414
Mg   12.61937438485    0.00000000000    2.10322906414
Mg    0.00000000000  -12.61937438485    2.10322906414
Mg  -12.61937438485    2.10322906414    0.00000000000
Mg   -2.10322906414   12.61937438485    0.00000000000
Mg    2.10322906414   12.61937438485    0.00000000000
Mg   12.61937438485    2.10322906414    0.00000000000
Mg   12.61937438485   -2.10322906414    0.00000000000
Mg    2.10322906414  -12.61937438485    0.00000000000
Mg   -2.10322906414  -12.61937438485    0.00000000000
Mg  -12.61937438485   -2.10322906414    0.00000000000
Mg  -12.61937438485    0.00000000000   -2.10322906414
Mg    0.00000000000   12.61937438485   -2.10322906414
Mg   12.61937438485    0.00000000000   -2.10322906414
Mg    0.00000000000  -12.61937438485   -2.10322906414
Mg   -2.10322906414    0.00000000000  -12.61937438485
Mg    0.00000000000    2.10322906414  -12.61937438485
Mg    2.10322906414    0.00000000000  -12.61937438485
Mg    0.00000000000   -2.10322906414  -12.61937438485
Mg   -4.20645812828    2.10322906414   12.61937438485
Mg   -2.10322906414    4.20645812828   12.61937438485
Mg    2.10322906414    4.20645812828   12.61937438485
Mg    4.20645812828    2.10322906414   12.61937438485
Mg    4.20645812828   -2.10322906414   12.61937438485
Mg    2.10322906414   -4.20645812828   12.61937438485
Mg   -2.10322906414   -4.20645812828   12.61937438485
Mg   -4.20645812828   -2.10322906414   12.61937438485
Mg   -8.41291625657    0.00000000000   10.51614532071
Mg    0.00000000000    8.41291625657   10.51614532071
Mg    8.41291625657    0.00000000000   10.51614532071
Mg    0.00000000000   -8.41291625657   10.51614532071
Mg  -10.51614532071    0.00000000000    8.41291625657
Mg   -8.41291625657    6.30968719243    8.41291625657
Mg   -6.30968719243    8.41291625657    8.41291625657
Mg    0.00000000000   10.51614532071    8.41291625657
Mg    6.30968719243    8.41291625657    8.41291625657
Mg    8.41291625657    6.30968719243    8.41291625657
Mg   10.51614532071    0.00000000000    8.41291625657
Mg    8.41291625657   -6.30968719243    8.41291625657
Mg    6.30968719243   -8.41291625657    8.41291625657
Mg    0.00000000000  -10.51614532071    8.41291625657
Mg   -6.30968719243   -8.41291625657    8.41291625657
Mg   -8.41291625657   -6.30968719243    8.41291625657
Mg   -8.41291625657    8.41291625657    6.30968719243
Mg    8.41291625657    8.41291625657    6.30968719243
Mg    8.41291625657   -8.41291625657    6.30968719243
Mg   -8.41291625657   -8.41291625657    6.30968719243
Mg  -12.61937438485    2.10322906414    4.20645812828
Mg   -2.10322906414   12.61937438485    4.20645812828
Mg    2.10322906414   12.61937438485    4.20645812828
Mg   12.61937438485    2.10322906414    4.20645812828
Mg   12.61937438485   -2.10322906414    4.20645812828
Mg    2.10322906414  -12.61937438485    4.20645812828
Mg   -2.10322906414  -12.61937438485    4.20645812828
Mg  -12.61937438485   -2.10322906414    4.20645812828
Mg  -12.61937438485    4.20645812828    2.10322906414
Mg   -4.20645812828   12.61937438485    2.10322906414
Mg    4.20645812828   12.61937438485    2.10322906414
Mg   12.61937438485    4.20645812828    2.10322906414
Mg   12.61937438485   -4.20645812828    2.10322906414
Mg    4.20645812828  -12.61937438485    2.10322906414
Mg   -4.20645812828  -12.61937438485    2.10322906414
Mg  -12.61937438485   -4.20645812828    2.10322906414
Mg  -10.51614532071    8.41291625657    0.00000000000
Mg   -8.41291625657   10.51614532071    0.00000000000
Mg    8.41291625657   10.51614532071    0.00000000000
Mg   10.51614532071    8.41291625657    0.00000000000
Mg   10.51614532071   -8.41291625657    0.00000000000
Mg    8.41291625657  -10.51614532071    0.00000000000
Mg   -8.41291625657  -10.51614532071    0.00000000000
Mg  -10.51614532071   -8.41291625657    0.00000000000
Mg  -12.61937438485    4.20645812828   -2.10322906414
Mg   -4.20645812828   12.61937438485   -2.10322906414
Mg    4.20645812828   12.61937438485   -2.10322906414
Mg   12.61937438485    4.20645812828   -2.10322906414
Mg   12.61937438485   -4.20645812828   -2.10322906414
Mg    4.20645812828  -12.61937438485   -2.10322906414
Mg   -4.20645812828  -12.61937438485   -2.10322906414
Mg  -12.61937438485   -4.20645812828   -2.10322906414
Mg  -12.61937438485    2.10322906414   -4.20645812828
Mg   -2.10322906414   12.61937438485   -4.20645812828
Mg    2.10322906414   12.61937438485   -4.20645812828
Mg   12.61937438485    2.10322906414   -4.20645812828
Mg   12.61937438485   -2.10322906414   -4.20645812828
Mg    2.10322906414  -12.61937438485   -4.20645812828
Mg   -2.10322906414  -12.61937438485   -4.20645812828
Mg  -12.61937438485   -2.10322906414   -4.20645812828
Mg   -8.41291625657    8.41291625657   -6.30968719243
Mg    8.41291625657    8.41291625657   -6.30968719243
Mg    8.41291625657   -8.41291625657   -6.30968719243
Mg   -8.41291625657   -8.41291625657   -6.30968719243
Mg  -10.51614532071    0.00000000000   -8.41291625657
Mg   -8.41291625657    6.30968719243   -8.41291625657
Mg   -6.30968719243    8.41291625657   -8.41291625657
Mg    0.00000000000   10.51614532071   -8.41291625657
Mg    6.30968719243    8.41291625657   -8.41291625657
Mg    8.41291625657    6.30968719243   -8.41291625657
Mg   10.51614532071    0.00000000000   -8.41291625657
Mg    8.41291625657   -6.30968719243   -8.41291625657
Mg    6.30968719243   -8.41291625657   -8.41291625657
Mg    0.00000000000  -10.51614532071   -8.41291625657
Mg   -6.30968719243   -8.41291625657   -8.41291625657
Mg   -8.41291625657   -6.30968719243   -8.41291625657
Mg   -8.41291625657    0.00000000000  -10.51614532071
Mg    0.00000000000    8.41291625657  -10.51614532071
Mg    8.41291625657    0.00000000000  -10.51614532071
Mg    0.00000000000   -8.41291625657  -10.51614532071
Mg   -4.20645812828    2.10322906414  -12.61937438485
Mg   -2.10322906414    4.20645812828  -12.61937438485
Mg    2.10322906414    4.20645812828  -12.61937438485
Mg    4.20645812828    2.10322906414  -12.61937438485
Mg    4.20645812828   -2.10322906414  -12.61937438485
Mg    2.10322906414   -4.20645812828  -12.61937438485
Mg   -2.10322906414   -4.20645812828  -12.61937438485
Mg   -4.20645812828   -2.10322906414  -12.61937438485
Mg   -6.30968719243    6.30968719243   10.51614532071
Mg    6.30968719243    6.30968719243   10.51614532071
Mg    6.30968719243   -6.30968719243   10.51614532071
Mg   -6.30968719243   -6.30968719243   10.51614532071
Mg  -10.51614532071    6.30968719243    6.30968719243
Mg   -6.30968719243   10.51614532071    6.30968719243
Mg    6.30968719243   10.51614532071    6.30968719243
Mg   10.51614532071    6.30968719243    6.30968719243
Mg   10.51614532071   -6.30968719243    6.30968719243
Mg    6.30968719243  -10.51614532071    6.30968719243
Mg   -6.30968719243  -10.51614532071    6.30968719243
Mg  -10.51614532071   -6.30968719243    6.30968719243
Mg  -10.51614532071    6.30968719243   -6.30968719243
Mg   -6.30968719243   10.51614532071   -6.30968719243
Mg    6.30968719243   10.51614532071   -6.30968719243
Mg   10.51614532071    6.30968719243   -6.30968719243
Mg   10.51614532071   -6.30968719243   -6.30968719243
Mg    6.30968719243  -10.51614532071   -6.30968719243
Mg   -6.30968719243  -10.51614532071   -6.30968719243
Mg  -10.51614532071   -6.30968719243   -6.30968719243
Mg   -6.30968719243    6.30968719243  -10.51614532071
Mg    6.30968719243    6.30968719243  -10.51614532071
Mg    6.30968719243   -6.30968719243  -10.51614532071
Mg   -6.30968719243   -6.30968719243  -10.51614532071
Mg   -6.30968719243    0.00000000000   12.61937438485
Mg    0.00000000000    6.30968719243   12.61937438485
Mg    6.30968719243    0.00000000000   12.61937438485
Mg    0.00000000000   -6.30968719243   12.61937438485
Mg   -8.41291625657    4.20645812828   10.51614532071
Mg   -4.20645812828    8.41291625657   10.51614532071
Mg    4.20645812828    8.41291625657   10.51614532071
Mg    8.41291625657    4.20645812828   10.51614532071
Mg    8.41291625657   -4.20645812828   10.51614532071
Mg    4.20645812828   -8.41291625657   10.51614532071
Mg   -4.20645812828   -8.41291625657   10.51614532071
Mg   -8.41291625657   -4.20645812828   10.51614532071
Mg  -10.51614532071    4.20645812828    8.41291625657
Mg   -4.20645812828   10.51614532071    8.41291625657
Mg    4.20645812828   10.51614532071    8.41291625657
Mg   10.51614532071    4.20645812828    8.41291625657
Mg   10.51614532071   -4.20645812828    8.41291625657
Mg    4.20645812828  -10.51614532071    8.41291625657
Mg   -4.20645812828  -10.51614532071    8.41291625657
Mg  -10.51614532071   -4.20645812828    8.41291625657
Mg  -12.61937438485    0.00000000000    6.30968719243
Mg    0.00000000000   12.61937438485    6.30968719243
Mg   12.61937438485    0.00000000000    6.30968719243
Mg    0.00000000000  -12.61937438485    6.30968719243
Mg  -10.51614532071    8.41291625657    4.20645812828
Mg   -8.41291625657   10.51614532071    4.20645812828
Mg    8.41291625657   10.51614532071    4.20645812828
Mg   10.51614532071    8.41291625657    4.20645812828
Mg   10.51614532071   -8.41291625657    4.20645812828
Mg    8.41291625657  -10.51614532071    4.20645812828
Mg   -8.41291625657  -10.51614532071    4.20645812828
Mg  -10.51614532071   -8.41291625657    4.20645812828
Mg  -12.61937438485    6.30968719243    0.00000000000
Mg   -6.30968719243   12.61937438485    0.00000000000
Mg    6.30968719243   12.61937438485    0.00000000000
Mg   12.61937438485    6.30968719243    0.00000000000
Mg   12.61937438485   -6.30968719243    0.00000000000
Mg    6.30968719243  -12.61937438485    0.00000000000
Mg   -6.30968719243  -12.61937438485    0.00000000000
Mg  -12.61937438485   -6.30968719243    0.00000000000
Mg  -10.51614532071    8.41291625657   -4.20645812828
Mg   -8.41291625657   10.51614532071   -4.20645812828
Mg    8.41291625657   10.51614532071   -4.20645812828
Mg   10.51614532071    8.41291625657   -4.20645812828
Mg   10.51614532071   -8.41291625657   -4.20645812828
Mg    8.41291625657  -10.51614532071   -4.20645812828
Mg   -8.41291625657  -10.51614532071   -4.20645812828
Mg  -10.51614532071   -8.41291625657   -4.20645812828
Mg  -12.61937438485    0.00000000000   -6.30968719243
Mg    0.00000000000   12.61937438485   -6.30968719243
Mg   12.61937438485    0.00000000000   -6.30968719243
Mg    0.00000000000  -12.61937438485   -6.30968719243
Mg  -10.51614532071    4.20645812828   -8.41291625657
Mg   -4.20645812828   10.51614532071   -8.41291625657
Mg    4.20645812828   10.51614532071   -8.41291625657
Mg   10.51614532071    4.20645812828   -8.41291625657
Mg   10.51614532071   -4.20645812828   -8.41291625657
Mg    4.20645812828  -10.51614532071   -8.41291625657
Mg   -4.20645812828  -10.51614532071   -8.41291625657
Mg  -10.51614532071   -4.20645812828   -8.41291625657
Mg   -8.41291625657    4.20645812828  -10.51614532071
Mg   -4.20645812828    8.41291625657  -10.51614532071
Mg    4.20645812828    8.41291625657  -10.51614532071
Mg    8.41291625657    4.20645812828  -10.51614532071
Mg    8.41291625657   -4.20645812828  -10.51614532071
Mg    4.20645812828   -8.41291625657  -10.51614532071
Mg   -4.20645812828   -8.41291625657  -10.51614532071
Mg   -8.41291625657   -4.20645812828  -10.51614532071
Mg   -6.30968719243    0.00000000000  -12.61937438485
Mg    0.00000000000    6.30968719243  -12.61937438485
Mg    6.30968719243    0.00000000000  -12.61937438485
Mg    0.00000000000   -6.30968719243  -12.61937438485
Mg    0.00000000000    0.00000000000   14.72260344899
Mg   -6.30968719243    4.20645812828   12.61937438485
Mg   -4.20645812828    6.30968719243   12.61937438485
Mg    4.20645812828    6.30968719243   12.61937438485
Mg    6.30968719243    4.20645812828   12.61937438485
Mg    6.30968719243   -4.20645812828   12.61937438485
Mg    4.20645812828   -6.30968719243   12.61937438485
Mg   -4.20645812828   -6.30968719243   12.61937438485
Mg   -6.30968719243   -4.20645812828   12.61937438485
Mg  -12.61937438485    4.20645812828    6.30968719243
Mg   -4.20645812828   12.61937438485    6.30968719243
Mg    4.20645812828   12.61937438485    6.30968719243
Mg   12.61937438485    4.20645812828    6.30968719243
Mg   12.61937438485   -4.20645812828    6.30968719243
Mg    4.20645812828  -12.61937438485    6.30968719243
Mg   -4.20645812828  -12.61937438485    6.30968719243
Mg  -12.61937438485   -4.20645812828    6.30968719243
Mg  -12.61937438485    6.30968719243    4.20645812828
Mg   -6.30968719243   12.61937438485    4.20645812828
Mg    6.30968719243   12.61937438485    4.20645812828
Mg   12.61937438485    6.30968719243    4.20645812828
Mg   12.61937438485   -6.30968719243    4.20645812828
Mg    6.30968719243  -12.61937438485    4.20645812828
Mg   -6.30968719243  -12.61937438485    4.20645812828
Mg  -12.61937438485   -6.30968719243    4.20645812828
Mg  -14.72260344899    0.00000000000    0.00000000000
Mg    0.00000000000   14.72260344899    0.00000000000
Mg   14.72260344899    0.00000000000    0.00000000000
Mg    0.00000000000  -14.72260344899    0.00000000000
Mg  -12.61937438485    6.30968719243   -4.20645812828
Mg   -6.30968719243   12.61937438485   -4.20645812828
Mg    6.30968719243   12.61937438485   -4.20645812828
Mg   12.61937438485    6.30968719243   -4.20645812828
Mg   12.61937438485   -6.30968719243   -4.20645812828
Mg    6.30968719243  -12.61937438485   -4.20645812828
Mg   -6.30968719243  -12.61937438485   -4.20645812828
Mg  -12.61937438485   -6.30968719243   -4.20645812828
Mg  -12.61937438485    4.20645812828   -6.30968719243
Mg   -4.20645812828   12.61937438485   -6.30968719243
Mg    4.20645812828   12.61937438485   -6.30968719243
Mg   12.61937438485    4.20645812828   -6.30968719243
Mg   12.61937438485   -4.20645812828   -6.30968719243
Mg    4.20645812828  -12.61937438485   -6.30968719243
Mg   -4.20645812828  -12.61937438485   -6.30968719243
Mg  -12.61937438485   -4.20645812828   -6.30968719243
Mg   -6.30968719243    4.20645812828  -12.61937438485
Mg   -4.20645812828    6.30968719243  -12.61937438485
Mg    4.20645812828    6.30968719243  -12.61937438485
Mg    6.30968719243    4.20645812828  -12.61937438485
Mg    6.30968719243   -4.20645812828  -12.61937438485
Mg    4.20645812828   -6.30968719243  -12.61937438485
Mg   -4.20645812828   -6.30968719243  -12.61937438485
Mg   -6.30968719243   -4.20645812828  -12.61937438485
Mg    0.00000000000    0.00000000000  -14.72260344899
Mg   -2.10322906414    2.10322906414   14.72260344899
Mg    2.10322906414    2.10322906414   14.72260344899
Mg    2.10322906414   -2.10322906414   14.72260344899
Mg   -2.10322906414   -2.10322906414   14.72260344899
Mg  -14.72260344899    2.10322906414    2.10322906414
Mg   -2.10322906414   14.72260344899    2.10322906414
Mg    2.10322906414   14.72260344899    2.10322906414
Mg   14.72260344899    2.10322906414    2.10322906414
Mg   14.72260344899   -2.10322906414    2.10322906414
Mg    2.10322906414  -14.72260344899    2.10322906414
Mg   -2.10322906414  -14.72260344899    2.10322906414
Mg  -14.72260344899   -2.10322906414    2.10322906414
Mg  -14.72260344899    2.10322906414   -2.10322906414
Mg   -2.10322906414   14.72260344899   -2.10322906414
Mg    2.10322906414   14.72260344899   -2.10322906414
Mg   14.72260344899    2.10322906414   -2.10322906414
Mg   14.72260344899   -2.10322906414   -2.10322906414
Mg    2.10322906414  -14.72260344899   -2.10322906414
Mg   -2.10322906414  -14.72260344899   -2.10322906414
Mg  -14.72260344899   -2.10322906414   -2.10322906414
Mg   -2.10322906414    2.10322906414  -14.72260344899
Mg    2.10322906414    2.10322906414  -14.72260344899
Mg    2.10322906414   -2.10322906414  -14.72260344899
Mg   -2.10322906414   -2.10322906414  -14.72260344899

ghost=serialno
1

qmmm=Amber
pointcharges
11320
     -2.10322906414    2.10322906414    8.41291625657   -2.00000000000
      2.10322906414    2.10322906414    8.41291625657   -2.00000000000
      2.10322906414   -2.10322906414    8.41291625657   -2.00000000000
     -2.10322906414   -2.10322906414    8.41291625657   -2.00000000000
     -6.30968719243    0.00000000000    6.30968719243   -2.00000000000
      0.00000000000    6.30968719243    6.30968719243   -2.00000000000
      6.30968719243    0.00000000000    6.30968719243   -2.00000000000
      0.00000000000   -6.30968719243    6.30968719243   -2.00000000000
     -8.41291625657    2.10322906414    2.10322906414   -2.00000000000
     -2.10322906414    8.41291625657    2.10322906414   -2.00000000000
      2.10322906414    8.41291625657    2.10322906414   -2.00000000000
      8.41291625657    2.10322906414    2.10322906414   -2.00000000000
      8.41291625657   -2.10322906414    2.10322906414   -2.00000000000
      2.10322906414   -8.41291625657    2.10322906414   -2.00000000000
     -2.10322906414   -8.41291625657    2.10322906414   -2.00000000000
     -8.41291625657   -2.10322906414    2.10322906414   -2.00000000000
     -6.30968719243    6.30968719243    0.00000000000   -2.00000000000
      6.30968719243    6.30968719243    0.00000000000   -2.00000000000
      6.30968719243   -6.30968719243    0.00000000000   -2.00000000000
     -6.30968719243   -6.30968719243    0.00000000000   -2.00000000000
     -8.41291625657    2.10322906414   -2.10322906414   -2.00000000000
     -2.10322906414    8.41291625657   -2.10322906414   -2.00000000000
      2.10322906414    8.41291625657   -2.10322906414   -2.00000000000
      8.41291625657    2.10322906414   -2.10322906414   -2.00000000000
      8.41291625657   -2.10322906414   -2.10322906414   -2.00000000000
      2.10322906414   -8.41291625657   -2.10322906414   -2.00000000000
     -2.10322906414   -8.41291625657   -2.10322906414   -2.00000000000
     -8.41291625657   -2.10322906414   -2.10322906414   -2.00000000000
     -6.30968719243    0.00000000000   -6.30968719243   -2.00000000000
      0.00000000000    6.30968719243   -6.30968719243   -2.00000000000
      6.30968719243    0.00000000000   -6.30968719243   -2.00000000000
      0.00000000000   -6.30968719243   -6.30968719243   -2.00000000000
     -2.10322906414    2.10322906414   -8.41291625657   -2.00000000000
      2.10322906414    2.10322906414   -8.41291625657   -2.00000000000
      2.10322906414   -2.10322906414   -8.41291625657   -2.00000000000
     -2.10322906414   -2.10322906414   -8.41291625657   -2.00000000000
     -4.20645812828    0.00000000000    8.41291625657   -2.00000000000
      0.00000000000    4.20645812828    8.41291625657   -2.00000000000
      4.20645812828    0.00000000000    8.41291625657   -2.00000000000
      0.00000000000   -4.20645812828    8.41291625657   -2.00000000000
     -8.41291625657    0.00000000000    4.20645812828   -2.00000000000
      0.00000000000    8.41291625657    4.20645812828   -2.00000000000
      8.41291625657    0.00000000000    4.20645812828   -2.00000000000
      0.00000000000   -8.41291625657    4.20645812828   -2.00000000000
     -8.41291625657    4.20645812828    0.00000000000   -2.00000000000
     -4.20645812828    8.41291625657    0.00000000000   -2.00000000000
      4.20645812828    8.41291625657    0.00000000000   -2.00000000000
      8.41291625657    4.20645812828    0.00000000000   -2.00000000000
      8.41291625657   -4.20645812828    0.00000000000   -2.00000000000
      4.20645812828   -8.41291625657    0.00000000000   -2.00000000000
     -4.20645812828   -8.41291625657    0.00000000000   -2.00000000000
     -8.41291625657   -4.20645812828    0.00000000000   -2.00000000000
     -8.41291625657    0.00000000000   -4.20645812828   -2.00000000000
      0.00000000000    8.41291625657   -4.20645812828   -2.00000000000
      8.41291625657    0.00000000000   -4.20645812828   -2.00000000000
      0.00000000000   -8.41291625657   -4.20645812828   -2.00000000000
     -4.20645812828    0.00000000000   -8.41291625657   -2.00000000000
      0.00000000000    4.20645812828   -8.41291625657   -2.00000000000
      4.20645812828    0.00000000000   -8.41291625657   -2.00000000000
      0.00000000000   -4.20645812828   -8.41291625657   -2.00000000000
     -6.30968719243    4.20645812828    6.30968719243   -2.00000000000
     -4.20645812828    6.30968719243    6.30968719243   -2.00000000000
      4.20645812828    6.30968719243    6.30968719243   -2.00000000000
      6.30968719243    4.20645812828    6.30968719243   -2.00000000000
      6.30968719243   -4.20645812828    6.30968719243   -2.00000000000
      4.20645812828   -6.30968719243    6.30968719243   -2.00000000000
     -4.20645812828   -6.30968719243    6.30968719243   -2.00000000000
     -6.30968719243   -4.20645812828    6.30968719243   -2.00000000000
     -6.30968719243    6.30968719243    4.20645812828   -2.00000000000
      6.30968719243    6.30968719243    4.20645812828   -2.00000000000
      6.30968719243   -6.30968719243    4.20645812828   -2.00000000000
     -6.30968719243   -6.30968719243    4.20645812828   -2.00000000000
     -6.30968719243    6.30968719243   -4.20645812828   -2.00000000000
      6.30968719243    6.30968719243   -4.20645812828   -2.00000000000
      6.30968719243   -6.30968719243   -4.20645812828   -2.00000000000
     -6.30968719243   -6.30968719243   -4.20645812828   -2.00000000000
     -6.30968719243    4.20645812828   -6.30968719243   -2.00000000000
     -4.20645812828    6.30968719243   -6.30968719243   -2.00000000000
      4.20645812828    6.30968719243   -6.30968719243   -2.00000000000
      6.30968719243    4.20645812828   -6.30968719243   -2.00000000000
      6.30968719243   -4.20645812828   -6.30968719243   -2.00000000000
      4.20645812828   -6.30968719243   -6.30968719243   -2.00000000000
     -4.20645812828   -6.30968719243   -6.30968719243   -2.00000000000
     -6.30968719243   -4.20645812828   -6.30968719243   -2.00000000000
     -4.20645812828    4.20645812828    8.41291625657   -2.00000000000
      4.20645812828    4.20645812828    8.41291625657   -2.00000000000
      4.20645812828   -4.20645812828    8.41291625657   -2.00000000000
     -4.20645812828   -4.20645812828    8.41291625657   -2.00000000000
     -8.41291625657    4.20645812828    4.20645812828   -2.00000000000
     -4.20645812828    8.41291625657    4.20645812828   -2.00000000000
      4.20645812828    8.41291625657    4.20645812828   -2.00000000000
      8.41291625657    4.20645812828    4.20645812828   -2.00000000000
      8.41291625657   -4.20645812828    4.20645812828   -2.00000000000
      4.20645812828   -8.41291625657    4.20645812828   -2.00000000000
     -4.20645812828   -8.41291625657    4.20645812828   -2.00000000000
     -8.41291625657   -4.20645812828    4.20645812828   -2.00000000000
     -8.41291625657    4.20645812828   -4.20645812828   -2.00000000000
     -4.20645812828    8.41291625657   -4.20645812828   -2.00000000000
      4.20645812828    8.41291625657   -4.20645812828   -2.00000000000
      8.41291625657    4.20645812828   -4.20645812828   -2.00000000000
      8.41291625657   -4.20645812828   -4.20645812828   -2.00000000000
      4.20645812828   -8.41291625657   -4.20645812828   -2.00000000000
     -4.20645812828   -8.41291625657   -4.20645812828   -2.00000000000
     -8.41291625657   -4.20645812828   -4.20645812828   -2.00000000000
     -4.20645812828    4.20645812828   -8.41291625657   -2.00000000000
      4.20645812828    4.20645812828   -8.41291625657   -2.00000000000
      4.20645812828   -4.20645812828   -8.41291625657   -2.00000000000
     -4.20645812828   -4.20645812828   -8.41291625657   -2.00000000000
     -2.10322906414    0.00000000000   10.51614532071   -2.00000000000
[...]
 2739   A          2.782024       2.782024
 2740   A          2.784206       2.784206
 2741   A          2.784207       2.784207
 2742   A          2.784207       2.784207
 2743   A          2.784599       2.784599
 2744   A          2.784599       2.784599
 2745   A          2.784599       2.784599
 2746   A          2.784831       2.784831
 2747   A          2.784831       2.784831
 2748   A          2.784841       2.784841
 2749   A          2.787669       2.787669
 2750   A          2.787669       2.787669
 2751   A          2.787669       2.787669
 2752   A          2.788738       2.788738
 2753   A          2.788738       2.788738
 2754   A          2.790764       2.790764
 2755   A          2.790765       2.790765
 2756   A          2.790765       2.790765
 2757   A          2.791641       2.791641
 2758   A          2.791641       2.791641
 2759   A          2.793933       2.793933
 2760   A          2.793933       2.793933
 2761   A          2.793934       2.793934
 2762   A          2.795269       2.795269
 2763   A          2.795272       2.795272
 2764   A          2.795273       2.795273
 2765   A          2.795810       2.795810
 2766   A          2.795810       2.795810
 2767   A          2.795812       2.795812
 2768   A          2.798090       2.798090
 2769   A          2.798091       2.798091
 2770   A          2.798091       2.798091
 2771   A          2.798124       2.798124
 2772   A          2.798124       2.798124
 2773   A          2.798125       2.798125
 2774   A          2.800013       2.800013
 2775   A          2.800014       2.800014
 2776   A          2.801895       2.801895
 2777   A          2.803535       2.803535
 2778   A          2.803535       2.803535
 2779   A          2.803536       2.803536
 2780   A          2.804155       2.804155
 2781   A          2.804155       2.804155
 2782   A          2.804155       2.804155
 2783   A          2.804201       2.804201
 2784   A          2.804627       2.804627
 2785   A          2.804627       2.804627
 2786   A          2.806325       2.806325
 2787   A          2.807842       2.807842
 2788   A          2.807843       2.807843
 2789   A          2.807843       2.807843
 2790   A          2.809111       2.809111
 2791   A          2.809112       2.809112
 2792   A          2.809113       2.809113
 2793   A          2.809152       2.809152
 2794   A          2.809152       2.809152
 2795   A          2.811488       2.811488
 2796   A          2.811488       2.811488
 2797   A          2.811488       2.811488
 2798   A          2.812810       2.812810
 2799   A          2.812995       2.812995
 2800   A          2.812997       2.812997
 2801   A          2.812998       2.812998
 2802   A          2.813639       2.813639
 2803   A          2.813639       2.813639
 2804   A          2.813639       2.813639
 2805   A          2.814161       2.814161
 2806   A          2.814161       2.814161
 2807   A          2.814161       2.814161
 2808   A          2.814236       2.814236
 2809   A          2.816140       2.816140
 2810   A          2.816142       2.816142
 2811   A          2.816143       2.816143
 2812   A          2.816192       2.816192
 2813   A          2.816192       2.816192
 2814   A          2.819030       2.819030
 2815   A          2.819030       2.819030
 2816   A          2.819030       2.819030
 2817   A          2.819388       2.819388
 2818   A          2.819389       2.819389
 2819   A          2.820192       2.820192
 2820   A          2.820193       2.820193
 2821   A          2.820193       2.820193
 2822   A          2.822567       2.822567
 2823   A          2.822567       2.822567
 2824   A          2.822567       2.822567
 2825   A          2.824492       2.824492
 2826   A          2.828465       2.828465
 2827   A          2.828467       2.828467
 2828   A          2.828467       2.828467
 2829   A          2.828470       2.828470
 2830   A          2.828471       2.828471
 2831   A          2.828471       2.828471
 2832   A          2.830944       2.830944
 2833   A          2.832138       2.832138
 2834   A          2.832139       2.832139
 2835   A          2.832139       2.832139
 2836   A          2.833455       2.833455
 2837   A          2.833455       2.833455
 2838   A          2.833456       2.833456
 2839   A          2.833799       2.833799
 2840   A          2.833799       2.833799
 2841   A          2.833800       2.833800
 2842   A          2.834054       2.834054
 2843   A          2.834054       2.834054
 2844   A          2.836360       2.836360
 2845   A          2.836360       2.836360
 2846   A          2.836361       2.836361
 2847   A          2.837147       2.837147
 2848   A          2.839686       2.839686
 2849   A          2.839691       2.839691
 2850   A          2.839691       2.839691
 2851   A          2.839691       2.839691
 2852   A          2.840552       2.840552
 2853   A          2.840553       2.840553
 2854   A          2.840553       2.840553
 2855   A          2.840805       2.840805
 2856   A          2.840805       2.840805
 2857   A          2.840962       2.840962
 2858   A          2.840962       2.840962
 2859   A          2.840962       2.840962
 2860   A          2.843039       2.843039
 2861   A          2.843040       2.843040
 2862   A          2.843040       2.843040
 2863   A          2.843354       2.843354
 2864   A          2.843354       2.843354
 2865   A          2.843398       2.843398
 2866   A          2.843398       2.843398
 2867   A          2.843398       2.843398
 2868   A          2.844137       2.844137
 2869   A          2.844137       2.844137
 2870   A          2.844137       2.844137
 2871   A          2.844582       2.844582
 2872   A          2.844582       2.844582
 2873   A          2.844713       2.844713
 2874   A          2.846500       2.846500
 2875   A          2.846632       2.846632
 2876   A          2.846632       2.846632
 2877   A          2.846633       2.846633
 2878   A          2.847156       2.847156
 2879   A          2.848135       2.848135
 2880   A          2.848135       2.848135
 2881   A          2.848895       2.848895
 2882   A          2.848895       2.848895
 2883   A          2.848896       2.848896
 2884   A          2.850546       2.850546
 2885   A          2.850546       2.850546
 2886   A          2.850974       2.850974
 2887   A          2.851903       2.851903
 2888   A          2.851903       2.851903
 2889   A          2.851904       2.851904
 2890   A          2.853152       2.853152
 2891   A          2.855274       2.855274
 2892   A          2.855274       2.855274
 2893   A          2.855274       2.855274
 2894   A          2.855580       2.855580
 2895   A          2.855581       2.855581
 2896   A          2.855582       2.855582
 2897   A          2.855683       2.855683
 2898   A          2.855683       2.855683
 2899   A          2.855684       2.855684
 2900   A          2.856926       2.856926
 2901   A          2.856926       2.856926
 2902   A          2.857883       2.857883
 2903   A          2.857883       2.857883
 2904   A          2.857883       2.857883
 2905   A          2.858294       2.858294
 2906   A          2.858294       2.858294
 2907   A          2.858294       2.858294
 2908   A          2.859005       2.859005
 2909   A          2.859005       2.859005
 2910   A          2.859887       2.859887
 2911   A          2.859888       2.859888
 2912   A          2.859888       2.859888
 2913   A          2.859980       2.859980
 2914   A          2.859981       2.859981
 2915   A          2.859981       2.859981
 2916   A          2.860687       2.860687
 2917   A          2.860688       2.860688
 2918   A          2.861188       2.861188
 2919   A          2.861188       2.861188
 2920   A          2.861189       2.861189
 2921   A          2.862188       2.862188
 2922   A          2.862188       2.862188
 2923   A          2.862188       2.862188
 2924   A          2.862792       2.862792
 2925   A          2.864762       2.864762
 2926   A          2.864762       2.864762
 2927   A          2.864762       2.864762
 2928   A          2.865067       2.865067
 2929   A          2.865067       2.865067
 2930   A          2.865067       2.865067
 2931   A          2.867521       2.867521
 2932   A          2.867521       2.867521
 2933   A          2.867522       2.867522
 2934   A          2.867667       2.867667
 2935   A          2.867668       2.867668
 2936   A          2.867668       2.867668
 2937   A          2.867842       2.867842
 2938   A          2.868092       2.868092
 2939   A          2.868717       2.868717
 2940   A          2.868717       2.868717
 2941   A          2.869438       2.869438
 2942   A          2.869494       2.869494
 2943   A          2.869494       2.869494
 2944   A          2.869494       2.869494
 2945   A          2.870598       2.870598
 2946   A          2.870598       2.870598
 2947   A          2.870598       2.870598
 2948   A          2.872201       2.872201
 2949   A          2.872201       2.872201
 2950   A          2.872803       2.872803
 2951   A          2.872804       2.872804
 2952   A          2.872804       2.872804
 2953   A          2.873260       2.873260
 2954   A          2.873260       2.873260
 2955   A          2.873260       2.873260
 2956   A          2.873674       2.873674
 2957   A          2.873674       2.873674
 2958   A          2.873674       2.873674
 2959   A          2.874473       2.874473
 2960   A          2.874474       2.874474
 2961   A          2.876080       2.876080
 2962   A          2.876080       2.876080
 2963   A          2.876081       2.876081
 2964   A          2.876313       2.876313
 2965   A          2.876313       2.876313
 2966   A          2.876313       2.876313
 2967   A          2.877134       2.877134
 2968   A          2.877134       2.877134
 2969   A          2.877135       2.877135
 2970   A          2.878253       2.878253
 2971   A          2.878253       2.878253
 2972   A          2.878938       2.878938
 2973   A          2.878938       2.878938
 2974   A          2.878939       2.878939
 2975   A          2.879068       2.879068
 2976   A          2.879069       2.879069
 2977   A          2.879069       2.879069
 2978   A          2.880085       2.880085
 2979   A          2.880085       2.880085
 2980   A          2.880085       2.880085
 2981   A          2.880991       2.880991
 2982   A          2.880991       2.880991
 2983   A          2.880991       2.880991
 2984   A          2.881490       2.881490
 2985   A          2.883184       2.883184
 2986   A          2.883184       2.883184
 2987   A          2.883584       2.883584
 2988   A          2.883735       2.883735
 2989   A          2.883735       2.883735
 2990   A          2.883736       2.883736
 2991   A          2.884530       2.884530
 2992   A          2.884530       2.884530
 2993   A          2.884530       2.884530
 2994   A          2.886525       2.886525
 2995   A          2.886525       2.886525
 2996   A          2.886525       2.886525
 2997   A          2.886563       2.886563
 2998   A          2.886563       2.886563
 2999   A          2.886643       2.886643
 3000   A          2.886644       2.886644
 3001   A          2.887076       2.887076
 3002   A          2.887076       2.887076
 3003   A          2.887077       2.887077
 3004   A          2.887693       2.887693
 3005   A          2.887693       2.887693
 3006   A          2.887693       2.887693
 3007   A          2.887758       2.887758
 3008   A          2.888484       2.888484
 3009   A          2.888484       2.888484
 3010   A          2.888484       2.888484
 3011   A          2.888754       2.888754
 3012   A          2.888754       2.888754
 3013   A          2.888755       2.888755
 3014   A          2.889542       2.889542
 3015   A          2.889542       2.889542
 3016   A          2.889542       2.889542
 3017   A          2.890016       2.890016
 3018   A          2.891548       2.891548
 3019   A          2.891548       2.891548
 3020   A          2.891549       2.891549
 3021   A          2.892495       2.892495
 3022   A          2.892495       2.892495
 3023   A          2.892495       2.892495
 3024   A          2.892872       2.892872
 3025   A          2.893473       2.893473
 3026   A          2.893474       2.893474
 3027   A          2.893474       2.893474
 3028   A          2.894076       2.894076
 3029   A          2.894076       2.894076
 3030   A          2.894076       2.894076
 3031   A          2.894664       2.894664
 3032   A          2.894665       2.894665
 3033   A          2.895228       2.895228
 3034   A          2.895228       2.895228
 3035   A          2.895282       2.895282
 3036   A          2.895282       2.895282
 3037   A          2.895282       2.895282
 3038   A          2.895531       2.895531
 3039   A          2.895807       2.895807
 3040   A          2.895808       2.895808
 3041   A          2.895808       2.895808
 3042   A          2.896757       2.896757
 3043   A          2.896884       2.896884
 3044   A          2.896884       2.896884
 3045   A          2.896885       2.896885
 3046   A          2.898745       2.898745
 3047   A          2.898745       2.898745
 3048   A          2.898745       2.898745
 3049   A          2.901357       2.901357
 3050   A          2.901357       2.901357
 3051   A          2.901357       2.901357
 3052   A          2.901656       2.901656
 3053   A          2.901656       2.901656
 3054   A          2.904441       2.904441
 3055   A          2.904441       2.904441
 3056   A          2.904441       2.904441
 3057   A          2.905101       2.905101
 3058   A          2.905101       2.905101
 3059   A          2.905101       2.905101
 3060   A          2.905326       2.905326
 3061   A          2.905326       2.905326
 3062   A          2.905326       2.905326
 3063   A          2.906452       2.906452
 3064   A          2.906452       2.906452
 3065   A          2.906452       2.906452
 3066   A          2.906521       2.906521
 3067   A          2.906521       2.906521
 3068   A          2.906540       2.906540
 3069   A          2.906541       2.906541
 3070   A          2.906541       2.906541
 3071   A          2.906818       2.906818
 3072   A          2.907727       2.907727
 3073   A          2.907728       2.907728
 3074   A          2.908307       2.908307
 3075   A          2.908307       2.908307
 3076   A          2.908309       2.908309
 3077   A          2.908417       2.908417
 3078   A          2.908996       2.908996
 3079   A          2.908996       2.908996
 3080   A          2.908996       2.908996
 3081   A          2.909080       2.909080
 3082   A          2.909081       2.909081
 3083   A          2.909081       2.909081
 3084   A          2.911185       2.911185
 3085   A          2.911186       2.911186
 3086   A          2.911187       2.911187
 3087   A          2.911563       2.911563
 3088   A          2.911563       2.911563
 3089   A          2.912597       2.912597
 3090   A          2.913420       2.913420
 3091   A          2.913653       2.913653
 3092   A          2.913653       2.913653
 3093   A          2.913653       2.913653
 3094   A          2.914619       2.914619
 3095   A          2.914619       2.914619
 3096   A          2.915164       2.915164
 3097   A          2.915164       2.915164
 3098   A          2.915165       2.915165
 3099   A          2.916501       2.916501
 3100   A          2.916501       2.916501
 3101   A          2.916501       2.916501
 3102   A          2.917918       2.917918
 3103   A          2.917918       2.917918
 3104   A          2.921056       2.921056
 3105   A          2.921056       2.921056
 3106   A          2.921059       2.921059
 3107   A          2.923915       2.923915
 3108   A          2.923915       2.923915
 3109   A          2.923915       2.923915
 3110   A          2.924952       2.924952
 3111   A          2.926152       2.926152
 3112   A          2.926152       2.926152
 3113   A          2.926152       2.926152
 3114   A          2.930563       2.930563
 3115   A          2.930564       2.930564
 3116   A          2.930564       2.930564
 3117   A          2.932915       2.932915
 3118   A          2.932915       2.932915
 3119   A          2.933138       2.933138
 3120   A          2.933138       2.933138
 3121   A          2.933138       2.933138
 3122   A          2.935648       2.935648
 3123   A          2.936970       2.936970
 3124   A          2.936970       2.936970
 3125   A          2.939155       2.939155
 3126   A          2.939155       2.939155
 3127   A          2.939155       2.939155
 3128   A          2.941205       2.941205
 3129   A          2.941205       2.941205
 3130   A          2.941205       2.941205
 3131   A          2.946880       2.946880
 3132   A          2.946883       2.946883
 3133   A          2.946884       2.946884
 3134   A          2.948465       2.948465
 3135   A          2.948466       2.948466
 3136   A          2.948466       2.948466
 3137   A          2.948602       2.948602
 3138   A          2.948602       2.948602
 3139   A          2.956127       2.956127
 3140   A          2.956311       2.956311
 3141   A          2.956311       2.956311
 3142   A          2.956311       2.956311
 3143   A          2.956339       2.956339
 3144   A          2.956339       2.956339
 3145   A          2.956339       2.956339
 3146   A          2.956668       2.956668
 3147   A          2.968266       2.968266
 3148   A          2.968266       2.968266
 3149   A          2.968266       2.968266
 3150   A          2.972495       2.972495
 3151   A          2.972495       2.972495
 3152   A          2.972495       2.972495
 3153   A          2.974052       2.974052
 3154   A          2.974053       2.974053
 3155   A          2.974053       2.974053
 3156   A          2.994643       2.994643
 3157   A          2.994643       2.994643
 3158   A          2.994643       2.994643
 3159   A          3.003446       3.003446
 3160   A          3.003446       3.003446
 3161   A          3.007392       3.007392
 3162   A          3.007393       3.007393
 3163   A          3.007394       3.007394
 3164   A          3.008029       3.008029
 3165   A          3.008029       3.008029
 3166   A          3.009161       3.009161
 3167   A          3.009755       3.009755
 3168   A          3.009756       3.009756
 3169   A          3.009756       3.009756
 3170   A          3.024947       3.024947
 3171   A          3.024948       3.024948
 3172   A          3.024948       3.024948
 3173   A          3.029093       3.029093
 3174   A          3.029093       3.029093
 3175   A          3.042837       3.042837
 3176   A          3.042837       3.042837
 3177   A          3.042837       3.042837
 3178   A          3.044734       3.044734
 3179   A          3.044735       3.044735
 3180   A          3.044735       3.044735
 3181   A          3.050954       3.050954
 3182   A          3.065255       3.065255
 3183   A          3.092244       3.092244
 3184   A          3.092245       3.092245
 3185   A          3.092245       3.092245
 3186   A          3.110394       3.110394
 3187   A          3.110394       3.110394
 3188   A          4.213514       4.213514
 3189   A          4.213514       4.213514
 3190   A          4.213514       4.213514
 3191   A          4.355041       4.355041
 3192   A          4.355041       4.355041
 3193   A          6.380949       6.380949
 3194   A          6.380949       6.380949
 3195   A          6.380949       6.380949
 3196   A         35.226267      35.226267
 
 RETURNING FROM SCF ALGORITHM
 ======================================================================
 
 ************************ 2021-10-18 02:26:46 *************************
                      Normal termination of mrcc.
 **********************************************************************
