 **********************************************************************
                          MRCC program system
 **********************************************************************
 
                              Written by
 Mihaly Kallay, Peter R. Nagy, David Mester, Zoltan Rolik, Gyula Samu,
   Jozsef Csontos, Jozsef Csoka, P. Bernat Szabo, Laszlo Gyevi-Nagy,
    Bence Hegely, Istvan Ladjanszki, Lorant Szegedy, Bence Ladoczki,
       Klara Petrov, Mate Farkas, Pal D. Mezei, and Adam Ganyecz
 
        Department of Physical Chemistry and Materials Science
            Budapest University of Technology and Economics
                  Budapest P.O.Box 91, H-1521 Hungary
 
                              www.mrcc.hu
 
                    Release date: February 22, 2020

 ************************ 2021-11-19 01:03:51 *************************
 Executing minp...

 Reading input from MINP...
 
 Input file:
 
calc=SCF
dft=PBE
scftype=rks
verbosity=3
mem=170GB
symm=off
unit=angs
scfiguess=restart
scfmaxit=1000

charge=918
basis=special
def2-TZVPP
def2-TZVPP
def2-TZVPP
def2-TZVPP
def2-TZVPP
def2-TZVPP
def2-TZVPP
def2-TZVPP
def2-TZVPP
def2-TZVPP
def2-TZVPP
def2-TZVPP
def2-TZVPP
def2-TZVPP
def2-TZVPP
def2-TZVPP
def2-TZVPP
def2-TZVPP
def2-TZVPP
def2-TZVPP
def2-TZVPP
def2-TZVPP
def2-TZVPP
def2-TZVPP
def2-TZVPP
def2-TZVPP
def2-TZVPP
def2-TZVPP
def2-TZVPP
def2-TZVPP
def2-TZVPP
def2-TZVPP
def2-TZVPP
def2-TZVPP
def2-TZVPP
def2-TZVPP
def2-TZVPP
def2-TZVPP
def2-TZVPP
def2-TZVPP
def2-TZVPP
def2-TZVPP
def2-TZVPP
def2-TZVPP
def2-TZVPP
def2-TZVPP
def2-TZVPP
def2-TZVPP
def2-TZVPP
def2-TZVPP
def2-TZVPP
def2-TZVPP
def2-TZVPP
def2-TZVPP
def2-TZVPP
def2-TZVPP
def2-TZVPP
def2-TZVPP
def2-TZVPP
def2-TZVPP
def2-TZVPP
def2-TZVPP
def2-TZVPP
def2-TZVPP
def2-TZVPP
def2-TZVPP
def2-TZVPP
def2-TZVPP
def2-TZVPP
def2-TZVPP
def2-TZVPP
def2-TZVPP
def2-TZVPP
def2-TZVPP
def2-TZVPP
def2-TZVPP
def2-TZVPP
def2-TZVPP
def2-TZVPP
def2-TZVPP
def2-TZVPP
def2-TZVPP
def2-TZVPP
def2-TZVPP
def2-TZVPP
def2-TZVPP
def2-TZVPP
def2-TZVPP
def2-TZVPP
def2-TZVPP
def2-TZVPP
def2-TZVPP
def2-TZVPP
def2-TZVPP
def2-TZVPP
def2-TZVPP
def2-TZVPP
def2-TZVPP
def2-TZVPP
def2-TZVPP
def2-TZVPP
def2-TZVPP
def2-TZVPP
def2-TZVPP
def2-TZVPP
def2-TZVPP
def2-TZVPP
def2-TZVPP
def2-TZVPP
def2-TZVPP
def2-TZVPP
def2-TZVPP
def2-TZVPP
def2-TZVPP
def2-TZVPP
def2-TZVPP
def2-TZVPP
nothing
nothing
nothing
nothing
nothing
nothing
nothing
nothing
nothing
nothing
nothing
nothing
nothing
nothing
nothing
nothing
nothing
nothing
nothing
nothing
nothing
nothing
nothing
nothing
nothing
nothing
nothing
nothing
nothing
nothing
nothing
nothing
nothing
nothing
nothing
nothing
nothing
nothing
nothing
nothing
nothing
nothing
nothing
nothing
nothing
nothing
nothing
nothing
nothing
nothing
nothing
nothing
nothing
nothing
nothing
nothing
nothing
nothing
nothing
nothing
nothing
nothing
nothing
nothing
nothing
nothing
nothing
nothing
nothing
nothing
nothing
nothing
nothing
nothing
nothing
nothing
nothing
nothing
nothing
nothing
nothing
nothing
nothing
nothing
nothing
nothing
nothing
nothing
nothing
nothing
nothing
nothing
nothing
nothing
nothing
nothing
nothing
nothing
nothing
nothing
nothing
nothing
nothing
nothing
nothing
nothing
nothing
nothing
nothing
nothing
nothing
nothing
nothing
nothing
nothing
nothing
nothing
nothing
nothing
nothing
nothing
nothing
nothing
nothing
nothing
nothing
nothing
nothing
nothing
nothing
nothing
nothing
nothing
nothing
nothing
nothing
nothing
nothing
nothing
nothing
nothing
nothing
nothing
nothing
nothing
nothing
nothing
nothing
nothing
nothing
nothing
nothing
nothing
nothing
nothing
nothing
nothing
nothing
nothing
nothing
nothing
nothing
nothing
nothing
nothing
nothing
nothing
nothing
nothing
nothing
nothing
nothing
nothing
nothing
nothing
nothing
nothing
nothing
nothing
nothing
nothing
nothing
nothing
nothing
nothing
nothing
nothing
nothing
nothing
nothing
nothing
nothing
nothing
nothing
nothing
nothing
nothing
nothing
nothing
nothing
nothing
nothing
nothing
nothing
nothing
nothing
nothing
nothing
nothing
nothing
nothing
nothing
nothing
nothing
nothing
nothing
nothing
nothing
nothing
nothing
nothing
nothing
nothing
nothing
nothing
nothing
nothing
nothing
nothing
nothing
nothing
nothing
nothing
nothing
nothing
nothing
nothing
nothing
nothing
nothing
nothing
nothing
nothing
nothing
nothing
nothing
nothing
nothing
nothing
nothing
nothing
nothing
nothing
nothing
nothing
nothing
nothing
nothing
nothing
nothing
nothing
nothing
nothing
nothing
nothing
nothing
nothing
nothing
nothing
nothing
nothing
nothing
nothing
nothing
nothing
nothing
nothing
nothing
nothing
nothing
nothing
nothing
nothing
nothing
nothing
nothing
nothing
nothing
nothing
nothing
nothing
nothing
nothing
nothing
nothing
nothing
nothing
nothing
nothing
nothing
nothing
nothing
nothing
nothing
nothing
nothing
nothing
nothing
nothing
nothing
nothing
nothing
nothing
nothing
nothing
nothing
nothing
nothing
nothing
nothing
nothing
nothing
nothing
nothing
nothing
nothing
nothing
nothing
nothing
nothing
nothing
nothing
nothing
nothing
nothing
nothing
nothing
nothing
nothing
nothing
nothing
nothing
nothing
nothing
nothing
nothing
nothing
nothing
nothing
nothing
nothing
nothing
nothing
nothing
nothing
nothing
nothing
nothing
nothing
nothing
nothing
nothing
nothing
nothing
nothing
nothing
nothing
nothing
nothing
nothing
nothing
nothing
nothing
nothing
nothing
nothing
nothing
nothing
nothing
nothing
nothing
nothing
nothing
nothing
nothing
nothing
nothing
nothing
nothing
nothing
nothing
nothing
nothing
nothing
nothing
nothing
nothing
nothing
nothing
nothing
nothing
nothing
nothing
nothing
nothing
nothing
nothing
nothing
nothing
nothing
nothing
nothing
nothing
nothing
nothing
nothing
nothing
nothing
nothing
nothing
nothing
nothing
nothing
nothing
nothing
nothing
nothing
nothing
nothing
nothing
nothing
nothing
nothing
nothing
nothing
nothing
nothing
nothing
nothing
nothing
nothing
nothing
nothing
nothing
nothing
nothing
nothing
nothing
nothing
nothing
nothing
nothing
nothing
nothing
nothing
nothing
nothing
nothing
nothing
nothing
nothing
nothing
nothing
nothing
nothing
nothing
nothing
nothing
nothing
nothing
nothing
nothing
nothing
nothing
nothing
nothing
nothing
nothing
nothing
nothing
nothing
nothing
nothing
nothing
nothing
nothing
nothing
nothing
nothing
nothing
nothing
nothing
nothing
nothing
nothing
nothing
nothing
nothing
nothing
nothing

dfbasis_scf=special
def2-QZVPP-RI-JK
def2-QZVPP-RI-JK
def2-QZVPP-RI-JK
def2-QZVPP-RI-JK
def2-QZVPP-RI-JK
def2-QZVPP-RI-JK
def2-QZVPP-RI-JK
def2-QZVPP-RI-JK
def2-QZVPP-RI-JK
def2-QZVPP-RI-JK
def2-QZVPP-RI-JK
def2-QZVPP-RI-JK
def2-QZVPP-RI-JK
def2-QZVPP-RI-JK
def2-QZVPP-RI-JK
def2-QZVPP-RI-JK
def2-QZVPP-RI-JK
def2-QZVPP-RI-JK
def2-QZVPP-RI-JK
def2-QZVPP-RI-JK
def2-QZVPP-RI-JK
def2-QZVPP-RI-JK
def2-QZVPP-RI-JK
def2-QZVPP-RI-JK
def2-QZVPP-RI-JK
def2-QZVPP-RI-JK
def2-QZVPP-RI-JK
def2-QZVPP-RI-JK
def2-QZVPP-RI-JK
def2-QZVPP-RI-JK
def2-QZVPP-RI-JK
def2-QZVPP-RI-JK
def2-QZVPP-RI-JK
def2-QZVPP-RI-JK
def2-QZVPP-RI-JK
def2-QZVPP-RI-JK
def2-QZVPP-RI-JK
def2-QZVPP-RI-JK
def2-QZVPP-RI-JK
def2-QZVPP-RI-JK
def2-QZVPP-RI-JK
def2-QZVPP-RI-JK
def2-QZVPP-RI-JK
def2-QZVPP-RI-JK
def2-QZVPP-RI-JK
def2-QZVPP-RI-JK
def2-QZVPP-RI-JK
def2-QZVPP-RI-JK
def2-QZVPP-RI-JK
def2-QZVPP-RI-JK
def2-QZVPP-RI-JK
def2-QZVPP-RI-JK
def2-QZVPP-RI-JK
def2-QZVPP-RI-JK
def2-QZVPP-RI-JK
def2-QZVPP-RI-JK
def2-QZVPP-RI-JK
def2-QZVPP-RI-JK
def2-QZVPP-RI-JK
def2-QZVPP-RI-JK
def2-QZVPP-RI-JK
def2-QZVPP-RI-JK
def2-QZVPP-RI-JK
def2-QZVPP-RI-JK
def2-QZVPP-RI-JK
def2-QZVPP-RI-JK
def2-QZVPP-RI-JK
def2-QZVPP-RI-JK
def2-QZVPP-RI-JK
def2-QZVPP-RI-JK
def2-QZVPP-RI-JK
def2-QZVPP-RI-JK
def2-QZVPP-RI-JK
def2-QZVPP-RI-JK
def2-QZVPP-RI-JK
def2-QZVPP-RI-JK
def2-QZVPP-RI-JK
def2-QZVPP-RI-JK
def2-QZVPP-RI-JK
def2-QZVPP-RI-JK
def2-QZVPP-RI-JK
def2-QZVPP-RI-JK
def2-QZVPP-RI-JK
def2-QZVPP-RI-JK
def2-QZVPP-RI-JK
def2-QZVPP-RI-JK
def2-QZVPP-RI-JK
def2-QZVPP-RI-JK
def2-QZVPP-RI-JK
def2-QZVPP-RI-JK
def2-QZVPP-RI-JK
def2-QZVPP-RI-JK
def2-QZVPP-RI-JK
def2-QZVPP-RI-JK
def2-QZVPP-RI-JK
def2-QZVPP-RI-JK
def2-QZVPP-RI-JK
def2-QZVPP-RI-JK
def2-QZVPP-RI-JK
def2-QZVPP-RI-JK
def2-QZVPP-RI-JK
def2-QZVPP-RI-JK
def2-QZVPP-RI-JK
def2-QZVPP-RI-JK
def2-QZVPP-RI-JK
def2-QZVPP-RI-JK
def2-QZVPP-RI-JK
def2-QZVPP-RI-JK
def2-QZVPP-RI-JK
def2-QZVPP-RI-JK
def2-QZVPP-RI-JK
def2-QZVPP-RI-JK
def2-QZVPP-RI-JK
def2-QZVPP-RI-JK
def2-QZVPP-RI-JK
def2-QZVPP-RI-JK
def2-QZVPP-RI-JK
nothing
nothing
nothing
nothing
nothing
nothing
nothing
nothing
nothing
nothing
nothing
nothing
nothing
nothing
nothing
nothing
nothing
nothing
nothing
nothing
nothing
nothing
nothing
nothing
nothing
nothing
nothing
nothing
nothing
nothing
nothing
nothing
nothing
nothing
nothing
nothing
nothing
nothing
nothing
nothing
nothing
nothing
nothing
nothing
nothing
nothing
nothing
nothing
nothing
nothing
nothing
nothing
nothing
nothing
nothing
nothing
nothing
nothing
nothing
nothing
nothing
nothing
nothing
nothing
nothing
nothing
nothing
nothing
nothing
nothing
nothing
nothing
nothing
nothing
nothing
nothing
nothing
nothing
nothing
nothing
nothing
nothing
nothing
nothing
nothing
nothing
nothing
nothing
nothing
nothing
nothing
nothing
nothing
nothing
nothing
nothing
nothing
nothing
nothing
nothing
nothing
nothing
nothing
nothing
nothing
nothing
nothing
nothing
nothing
nothing
nothing
nothing
nothing
nothing
nothing
nothing
nothing
nothing
nothing
nothing
nothing
nothing
nothing
nothing
nothing
nothing
nothing
nothing
nothing
nothing
nothing
nothing
nothing
nothing
nothing
nothing
nothing
nothing
nothing
nothing
nothing
nothing
nothing
nothing
nothing
nothing
nothing
nothing
nothing
nothing
nothing
nothing
nothing
nothing
nothing
nothing
nothing
nothing
nothing
nothing
nothing
nothing
nothing
nothing
nothing
nothing
nothing
nothing
nothing
nothing
nothing
nothing
nothing
nothing
nothing
nothing
nothing
nothing
nothing
nothing
nothing
nothing
nothing
nothing
nothing
nothing
nothing
nothing
nothing
nothing
nothing
nothing
nothing
nothing
nothing
nothing
nothing
nothing
nothing
nothing
nothing
nothing
nothing
nothing
nothing
nothing
nothing
nothing
nothing
nothing
nothing
nothing
nothing
nothing
nothing
nothing
nothing
nothing
nothing
nothing
nothing
nothing
nothing
nothing
nothing
nothing
nothing
nothing
nothing
nothing
nothing
nothing
nothing
nothing
nothing
nothing
nothing
nothing
nothing
nothing
nothing
nothing
nothing
nothing
nothing
nothing
nothing
nothing
nothing
nothing
nothing
nothing
nothing
nothing
nothing
nothing
nothing
nothing
nothing
nothing
nothing
nothing
nothing
nothing
nothing
nothing
nothing
nothing
nothing
nothing
nothing
nothing
nothing
nothing
nothing
nothing
nothing
nothing
nothing
nothing
nothing
nothing
nothing
nothing
nothing
nothing
nothing
nothing
nothing
nothing
nothing
nothing
nothing
nothing
nothing
nothing
nothing
nothing
nothing
nothing
nothing
nothing
nothing
nothing
nothing
nothing
nothing
nothing
nothing
nothing
nothing
nothing
nothing
nothing
nothing
nothing
nothing
nothing
nothing
nothing
nothing
nothing
nothing
nothing
nothing
nothing
nothing
nothing
nothing
nothing
nothing
nothing
nothing
nothing
nothing
nothing
nothing
nothing
nothing
nothing
nothing
nothing
nothing
nothing
nothing
nothing
nothing
nothing
nothing
nothing
nothing
nothing
nothing
nothing
nothing
nothing
nothing
nothing
nothing
nothing
nothing
nothing
nothing
nothing
nothing
nothing
nothing
nothing
nothing
nothing
nothing
nothing
nothing
nothing
nothing
nothing
nothing
nothing
nothing
nothing
nothing
nothing
nothing
nothing
nothing
nothing
nothing
nothing
nothing
nothing
nothing
nothing
nothing
nothing
nothing
nothing
nothing
nothing
nothing
nothing
nothing
nothing
nothing
nothing
nothing
nothing
nothing
nothing
nothing
nothing
nothing
nothing
nothing
nothing
nothing
nothing
nothing
nothing
nothing
nothing
nothing
nothing
nothing
nothing
nothing
nothing
nothing
nothing
nothing
nothing
nothing
nothing
nothing
nothing
nothing
nothing
nothing
nothing
nothing
nothing
nothing
nothing
nothing
nothing
nothing
nothing
nothing
nothing
nothing
nothing
nothing
nothing
nothing
nothing
nothing
nothing
nothing
nothing
nothing
nothing
nothing
nothing
nothing
nothing
nothing
nothing
nothing
nothing
nothing
nothing
nothing
nothing
nothing
nothing
nothing
nothing
nothing
nothing
nothing
nothing
nothing
nothing
nothing
nothing
nothing
nothing
nothing
nothing
nothing
nothing
nothing
nothing
nothing
nothing
nothing
nothing
nothing
nothing
nothing
nothing

ecp=special
none
none
none
none
none
none
none
none
none
none
none
none
none
none
none
none
none
none
none
none
none
none
none
none
none
none
none
none
none
none
none
none
none
none
none
none
none
none
none
none
none
none
none
none
none
none
none
none
none
none
none
none
none
none
none
none
none
none
none
none
none
none
none
none
none
none
none
none
none
none
none
none
none
none
none
none
none
none
none
none
none
none
none
none
none
none
none
none
none
none
none
none
none
none
none
none
none
none
none
none
none
none
none
none
none
none
none
none
none
none
none
none
none
none
none
none
none
ECP-10
ECP-10
ECP-10
ECP-10
ECP-10
ECP-10
ECP-10
ECP-10
ECP-10
ECP-10
ECP-10
ECP-10
ECP-10
ECP-10
ECP-10
ECP-10
ECP-10
ECP-10
ECP-10
ECP-10
ECP-10
ECP-10
ECP-10
ECP-10
ECP-10
ECP-10
ECP-10
ECP-10
ECP-10
ECP-10
ECP-10
ECP-10
ECP-10
ECP-10
ECP-10
ECP-10
ECP-10
ECP-10
ECP-10
ECP-10
ECP-10
ECP-10
ECP-10
ECP-10
ECP-10
ECP-10
ECP-10
ECP-10
ECP-10
ECP-10
ECP-10
ECP-10
ECP-10
ECP-10
ECP-10
ECP-10
ECP-10
ECP-10
ECP-10
ECP-10
ECP-10
ECP-10
ECP-10
ECP-10
ECP-10
ECP-10
ECP-10
ECP-10
ECP-10
ECP-10
ECP-10
ECP-10
ECP-10
ECP-10
ECP-10
ECP-10
ECP-10
ECP-10
ECP-10
ECP-10
ECP-10
ECP-10
ECP-10
ECP-10
ECP-10
ECP-10
ECP-10
ECP-10
ECP-10
ECP-10
ECP-10
ECP-10
ECP-10
ECP-10
ECP-10
ECP-10
ECP-10
ECP-10
ECP-10
ECP-10
ECP-10
ECP-10
ECP-10
ECP-10
ECP-10
ECP-10
ECP-10
ECP-10
ECP-10
ECP-10
ECP-10
ECP-10
ECP-10
ECP-10
ECP-10
ECP-10
ECP-10
ECP-10
ECP-10
ECP-10
ECP-10
ECP-10
ECP-10
ECP-10
ECP-10
ECP-10
ECP-10
ECP-10
ECP-10
ECP-10
ECP-10
ECP-10
ECP-10
ECP-10
ECP-10
ECP-10
ECP-10
ECP-10
ECP-10
ECP-10
ECP-10
ECP-10
ECP-10
ECP-10
ECP-10
ECP-10
ECP-10
ECP-10
ECP-10
ECP-10
ECP-10
ECP-10
ECP-10
ECP-10
ECP-10
ECP-10
ECP-10
ECP-10
ECP-10
ECP-10
ECP-10
ECP-10
ECP-10
ECP-10
ECP-10
ECP-10
ECP-10
ECP-10
ECP-10
ECP-10
ECP-10
ECP-10
ECP-10
ECP-10
ECP-10
ECP-10
ECP-10
ECP-10
ECP-10
ECP-10
ECP-10
ECP-10
ECP-10
ECP-10
ECP-10
ECP-10
ECP-10
ECP-10
ECP-10
ECP-10
ECP-10
ECP-10
ECP-10
ECP-10
ECP-10
ECP-10
ECP-10
ECP-10
ECP-10
ECP-10
ECP-10
ECP-10
ECP-10
ECP-10
ECP-10
ECP-10
ECP-10
ECP-10
ECP-10
ECP-10
ECP-10
ECP-10
ECP-10
ECP-10
ECP-10
ECP-10
ECP-10
ECP-10
ECP-10
ECP-10
ECP-10
ECP-10
ECP-10
ECP-10
ECP-10
ECP-10
ECP-10
ECP-10
ECP-10
ECP-10
ECP-10
ECP-10
ECP-10
ECP-10
ECP-10
ECP-10
ECP-10
ECP-10
ECP-10
ECP-10
ECP-10
ECP-10
ECP-10
ECP-10
ECP-10
ECP-10
ECP-10
ECP-10
ECP-10
ECP-10
ECP-10
ECP-10
ECP-10
ECP-10
ECP-10
ECP-10
ECP-10
ECP-10
ECP-10
ECP-10
ECP-10
ECP-10
ECP-10
ECP-10
ECP-10
ECP-10
ECP-10
ECP-10
ECP-10
ECP-10
ECP-10
ECP-10
ECP-10
ECP-10
ECP-10
ECP-10
ECP-10
ECP-10
ECP-10
ECP-10
ECP-10
ECP-10
ECP-10
ECP-10
ECP-10
ECP-10
ECP-10
ECP-10
ECP-10
ECP-10
ECP-10
ECP-10
ECP-10
ECP-10
ECP-10
ECP-10
ECP-10
ECP-10
ECP-10
ECP-10
ECP-10
ECP-10
ECP-10
ECP-10
ECP-10
ECP-10
ECP-10
ECP-10
ECP-10
ECP-10
ECP-10
ECP-10
ECP-10
ECP-10
ECP-10
ECP-10
ECP-10
ECP-10
ECP-10
ECP-10
ECP-10
ECP-10
ECP-10
ECP-10
ECP-10
ECP-10
ECP-10
ECP-10
ECP-10
ECP-10
ECP-10
ECP-10
ECP-10
ECP-10
ECP-10
ECP-10
ECP-10
ECP-10
ECP-10
ECP-10
ECP-10
ECP-10
ECP-10
ECP-10
ECP-10
ECP-10
ECP-10
ECP-10
ECP-10
ECP-10
ECP-10
ECP-10
ECP-10
ECP-10
ECP-10
ECP-10
ECP-10
ECP-10
ECP-10
ECP-10
ECP-10
ECP-10
ECP-10
ECP-10
ECP-10
ECP-10
ECP-10
ECP-10
ECP-10
ECP-10
ECP-10
ECP-10
ECP-10
ECP-10
ECP-10
ECP-10
ECP-10
ECP-10
ECP-10
ECP-10
ECP-10
ECP-10
ECP-10
ECP-10
ECP-10
ECP-10
ECP-10
ECP-10
ECP-10
ECP-10
ECP-10
ECP-10
ECP-10
ECP-10
ECP-10
ECP-10
ECP-10
ECP-10
ECP-10
ECP-10
ECP-10
ECP-10
ECP-10
ECP-10
ECP-10
ECP-10
ECP-10
ECP-10
ECP-10
ECP-10
ECP-10
ECP-10
ECP-10
ECP-10
ECP-10
ECP-10
ECP-10
ECP-10
ECP-10
ECP-10
ECP-10
ECP-10
ECP-10
ECP-10
ECP-10
ECP-10
ECP-10
ECP-10
ECP-10
ECP-10
ECP-10
ECP-10
ECP-10
ECP-10
ECP-10
ECP-10
ECP-10
ECP-10
ECP-10
ECP-10
ECP-10
ECP-10
ECP-10
ECP-10
ECP-10
ECP-10
ECP-10
ECP-10
ECP-10
ECP-10
ECP-10
ECP-10
ECP-10
ECP-10
ECP-10
ECP-10
ECP-10
ECP-10
ECP-10
ECP-10
ECP-10
ECP-10
ECP-10
ECP-10
ECP-10
ECP-10
ECP-10
ECP-10
ECP-10
ECP-10
ECP-10
ECP-10
ECP-10
ECP-10
ECP-10
ECP-10
ECP-10
ECP-10
ECP-10
ECP-10
ECP-10
ECP-10
ECP-10
ECP-10
ECP-10
ECP-10
ECP-10
ECP-10
ECP-10
ECP-10
ECP-10
ECP-10
ECP-10
ECP-10
ECP-10
ECP-10
ECP-10
ECP-10
ECP-10
ECP-10

unit=angs
geom=xyz
617

O     0.00000000000    0.00000000000    0.00000000000
Mg    0.00000000000    0.00000000000    2.10322906414
Mg   -2.10322906414    0.00000000000    0.00000000000
Mg    0.00000000000    2.10322906414    0.00000000000
Mg    2.10322906414    0.00000000000    0.00000000000
Mg    0.00000000000   -2.10322906414    0.00000000000
Mg    0.00000000000    0.00000000000   -2.10322906414
O    -2.10322906414    0.00000000000    2.10322906414
O     0.00000000000    2.10322906414    2.10322906414
O     2.10322906414    0.00000000000    2.10322906414
O     0.00000000000   -2.10322906414    2.10322906414
O    -2.10322906414    2.10322906414    0.00000000000
O     2.10322906414    2.10322906414    0.00000000000
O     2.10322906414   -2.10322906414    0.00000000000
O    -2.10322906414   -2.10322906414    0.00000000000
O    -2.10322906414    0.00000000000   -2.10322906414
O     0.00000000000    2.10322906414   -2.10322906414
O     2.10322906414    0.00000000000   -2.10322906414
O     0.00000000000   -2.10322906414   -2.10322906414
Mg   -2.10322906414    2.10322906414    2.10322906414
Mg    2.10322906414    2.10322906414    2.10322906414
Mg    2.10322906414   -2.10322906414    2.10322906414
Mg   -2.10322906414   -2.10322906414    2.10322906414
Mg   -2.10322906414    2.10322906414   -2.10322906414
Mg    2.10322906414    2.10322906414   -2.10322906414
Mg    2.10322906414   -2.10322906414   -2.10322906414
Mg   -2.10322906414   -2.10322906414   -2.10322906414
O     0.00000000000    0.00000000000    4.20645812828
O    -4.20645812828    0.00000000000    0.00000000000
O     0.00000000000    4.20645812828    0.00000000000
O     4.20645812828    0.00000000000    0.00000000000
O     0.00000000000   -4.20645812828    0.00000000000
O     0.00000000000    0.00000000000   -4.20645812828
Mg   -2.10322906414    0.00000000000    4.20645812828
Mg    0.00000000000    2.10322906414    4.20645812828
Mg    2.10322906414    0.00000000000    4.20645812828
Mg    0.00000000000   -2.10322906414    4.20645812828
Mg   -4.20645812828    0.00000000000    2.10322906414
Mg    0.00000000000    4.20645812828    2.10322906414
Mg    4.20645812828    0.00000000000    2.10322906414
Mg    0.00000000000   -4.20645812828    2.10322906414
Mg   -4.20645812828    2.10322906414    0.00000000000
Mg   -2.10322906414    4.20645812828    0.00000000000
Mg    2.10322906414    4.20645812828    0.00000000000
Mg    4.20645812828    2.10322906414    0.00000000000
Mg    4.20645812828   -2.10322906414    0.00000000000
Mg    2.10322906414   -4.20645812828    0.00000000000
Mg   -2.10322906414   -4.20645812828    0.00000000000
Mg   -4.20645812828   -2.10322906414    0.00000000000
Mg   -4.20645812828    0.00000000000   -2.10322906414
Mg    0.00000000000    4.20645812828   -2.10322906414
Mg    4.20645812828    0.00000000000   -2.10322906414
Mg    0.00000000000   -4.20645812828   -2.10322906414
Mg   -2.10322906414    0.00000000000   -4.20645812828
Mg    0.00000000000    2.10322906414   -4.20645812828
Mg    2.10322906414    0.00000000000   -4.20645812828
Mg    0.00000000000   -2.10322906414   -4.20645812828
O    -2.10322906414    2.10322906414    4.20645812828
O     2.10322906414    2.10322906414    4.20645812828
O     2.10322906414   -2.10322906414    4.20645812828
O    -2.10322906414   -2.10322906414    4.20645812828
O    -4.20645812828    2.10322906414    2.10322906414
O    -2.10322906414    4.20645812828    2.10322906414
O     2.10322906414    4.20645812828    2.10322906414
O     4.20645812828    2.10322906414    2.10322906414
O     4.20645812828   -2.10322906414    2.10322906414
O     2.10322906414   -4.20645812828    2.10322906414
O    -2.10322906414   -4.20645812828    2.10322906414
O    -4.20645812828   -2.10322906414    2.10322906414
O    -4.20645812828    2.10322906414   -2.10322906414
O    -2.10322906414    4.20645812828   -2.10322906414
O     2.10322906414    4.20645812828   -2.10322906414
O     4.20645812828    2.10322906414   -2.10322906414
O     4.20645812828   -2.10322906414   -2.10322906414
O     2.10322906414   -4.20645812828   -2.10322906414
O    -2.10322906414   -4.20645812828   -2.10322906414
O    -4.20645812828   -2.10322906414   -2.10322906414
O    -2.10322906414    2.10322906414   -4.20645812828
O     2.10322906414    2.10322906414   -4.20645812828
O     2.10322906414   -2.10322906414   -4.20645812828
O    -2.10322906414   -2.10322906414   -4.20645812828
O    -4.20645812828    0.00000000000    4.20645812828
O     0.00000000000    4.20645812828    4.20645812828
O     4.20645812828    0.00000000000    4.20645812828
O     0.00000000000   -4.20645812828    4.20645812828
O    -4.20645812828    4.20645812828    0.00000000000
O     4.20645812828    4.20645812828    0.00000000000
O     4.20645812828   -4.20645812828    0.00000000000
O    -4.20645812828   -4.20645812828    0.00000000000
O    -4.20645812828    0.00000000000   -4.20645812828
O     0.00000000000    4.20645812828   -4.20645812828
O     4.20645812828    0.00000000000   -4.20645812828
O     0.00000000000   -4.20645812828   -4.20645812828
O    -2.10322906414    0.00000000000    6.30968719243
O     0.00000000000    2.10322906414    6.30968719243
O     2.10322906414    0.00000000000    6.30968719243
O     0.00000000000   -2.10322906414    6.30968719243
O    -6.30968719243    0.00000000000    2.10322906414
O     0.00000000000    6.30968719243    2.10322906414
O     6.30968719243    0.00000000000    2.10322906414
O     0.00000000000   -6.30968719243    2.10322906414
O    -6.30968719243    2.10322906414    0.00000000000
O    -2.10322906414    6.30968719243    0.00000000000
O     2.10322906414    6.30968719243    0.00000000000
O     6.30968719243    2.10322906414    0.00000000000
O     6.30968719243   -2.10322906414    0.00000000000
O     2.10322906414   -6.30968719243    0.00000000000
O    -2.10322906414   -6.30968719243    0.00000000000
O    -6.30968719243   -2.10322906414    0.00000000000
O    -6.30968719243    0.00000000000   -2.10322906414
O     0.00000000000    6.30968719243   -2.10322906414
O     6.30968719243    0.00000000000   -2.10322906414
O     0.00000000000   -6.30968719243   -2.10322906414
O    -2.10322906414    0.00000000000   -6.30968719243
O     0.00000000000    2.10322906414   -6.30968719243
O     2.10322906414    0.00000000000   -6.30968719243
O     0.00000000000   -2.10322906414   -6.30968719243
Mg    0.00000000000    0.00000000000    6.30968719243
Mg   -4.20645812828    2.10322906414    4.20645812828
Mg   -2.10322906414    4.20645812828    4.20645812828
Mg    2.10322906414    4.20645812828    4.20645812828
Mg    4.20645812828    2.10322906414    4.20645812828
Mg    4.20645812828   -2.10322906414    4.20645812828
Mg    2.10322906414   -4.20645812828    4.20645812828
Mg   -2.10322906414   -4.20645812828    4.20645812828
Mg   -4.20645812828   -2.10322906414    4.20645812828
Mg   -4.20645812828    4.20645812828    2.10322906414
Mg    4.20645812828    4.20645812828    2.10322906414
Mg    4.20645812828   -4.20645812828    2.10322906414
Mg   -4.20645812828   -4.20645812828    2.10322906414
Mg   -6.30968719243    0.00000000000    0.00000000000
Mg    0.00000000000    6.30968719243    0.00000000000
Mg    6.30968719243    0.00000000000    0.00000000000
Mg    0.00000000000   -6.30968719243    0.00000000000
Mg   -4.20645812828    4.20645812828   -2.10322906414
Mg    4.20645812828    4.20645812828   -2.10322906414
Mg    4.20645812828   -4.20645812828   -2.10322906414
Mg   -4.20645812828   -4.20645812828   -2.10322906414
Mg   -4.20645812828    2.10322906414   -4.20645812828
Mg   -2.10322906414    4.20645812828   -4.20645812828
Mg    2.10322906414    4.20645812828   -4.20645812828
Mg    4.20645812828    2.10322906414   -4.20645812828
Mg    4.20645812828   -2.10322906414   -4.20645812828
Mg    2.10322906414   -4.20645812828   -4.20645812828
Mg   -2.10322906414   -4.20645812828   -4.20645812828
Mg   -4.20645812828   -2.10322906414   -4.20645812828
Mg    0.00000000000    0.00000000000   -6.30968719243
Mg   -2.10322906414    2.10322906414    6.30968719243
Mg    2.10322906414    2.10322906414    6.30968719243
Mg    2.10322906414   -2.10322906414    6.30968719243
Mg   -2.10322906414   -2.10322906414    6.30968719243
Mg   -6.30968719243    2.10322906414    2.10322906414
Mg   -2.10322906414    6.30968719243    2.10322906414
Mg    2.10322906414    6.30968719243    2.10322906414
Mg    6.30968719243    2.10322906414    2.10322906414
Mg    6.30968719243   -2.10322906414    2.10322906414
Mg    2.10322906414   -6.30968719243    2.10322906414
Mg   -2.10322906414   -6.30968719243    2.10322906414
Mg   -6.30968719243   -2.10322906414    2.10322906414
Mg   -6.30968719243    2.10322906414   -2.10322906414
Mg   -2.10322906414    6.30968719243   -2.10322906414
Mg    2.10322906414    6.30968719243   -2.10322906414
Mg    6.30968719243    2.10322906414   -2.10322906414
Mg    6.30968719243   -2.10322906414   -2.10322906414
Mg    2.10322906414   -6.30968719243   -2.10322906414
Mg   -2.10322906414   -6.30968719243   -2.10322906414
Mg   -6.30968719243   -2.10322906414   -2.10322906414
Mg   -2.10322906414    2.10322906414   -6.30968719243
Mg    2.10322906414    2.10322906414   -6.30968719243
Mg    2.10322906414   -2.10322906414   -6.30968719243
Mg   -2.10322906414   -2.10322906414   -6.30968719243
Mg   -4.20645812828    0.00000000000    6.30968719243
Mg    0.00000000000    4.20645812828    6.30968719243
Mg    4.20645812828    0.00000000000    6.30968719243
Mg    0.00000000000   -4.20645812828    6.30968719243
Mg   -6.30968719243    0.00000000000    4.20645812828
Mg    0.00000000000    6.30968719243    4.20645812828
Mg    6.30968719243    0.00000000000    4.20645812828
Mg    0.00000000000   -6.30968719243    4.20645812828
Mg   -6.30968719243    4.20645812828    0.00000000000
Mg   -4.20645812828    6.30968719243    0.00000000000
Mg    4.20645812828    6.30968719243    0.00000000000
Mg    6.30968719243    4.20645812828    0.00000000000
Mg    6.30968719243   -4.20645812828    0.00000000000
Mg    4.20645812828   -6.30968719243    0.00000000000
Mg   -4.20645812828   -6.30968719243    0.00000000000
Mg   -6.30968719243   -4.20645812828    0.00000000000
Mg   -6.30968719243    0.00000000000   -4.20645812828
Mg    0.00000000000    6.30968719243   -4.20645812828
Mg    6.30968719243    0.00000000000   -4.20645812828
Mg    0.00000000000   -6.30968719243   -4.20645812828
Mg   -4.20645812828    0.00000000000   -6.30968719243
Mg    0.00000000000    4.20645812828   -6.30968719243
Mg    4.20645812828    0.00000000000   -6.30968719243
Mg    0.00000000000   -4.20645812828   -6.30968719243
Mg   -2.10322906414    0.00000000000    8.41291625657
Mg    0.00000000000    2.10322906414    8.41291625657
Mg    2.10322906414    0.00000000000    8.41291625657
Mg    0.00000000000   -2.10322906414    8.41291625657
Mg   -4.20645812828    4.20645812828    6.30968719243
Mg    4.20645812828    4.20645812828    6.30968719243
Mg    4.20645812828   -4.20645812828    6.30968719243
Mg   -4.20645812828   -4.20645812828    6.30968719243
Mg   -6.30968719243    4.20645812828    4.20645812828
Mg   -4.20645812828    6.30968719243    4.20645812828
Mg    4.20645812828    6.30968719243    4.20645812828
Mg    6.30968719243    4.20645812828    4.20645812828
Mg    6.30968719243   -4.20645812828    4.20645812828
Mg    4.20645812828   -6.30968719243    4.20645812828
Mg   -4.20645812828   -6.30968719243    4.20645812828
Mg   -6.30968719243   -4.20645812828    4.20645812828
Mg   -8.41291625657    0.00000000000    2.10322906414
Mg    0.00000000000    8.41291625657    2.10322906414
Mg    8.41291625657    0.00000000000    2.10322906414
Mg    0.00000000000   -8.41291625657    2.10322906414
Mg   -8.41291625657    2.10322906414    0.00000000000
Mg   -2.10322906414    8.41291625657    0.00000000000
Mg    2.10322906414    8.41291625657    0.00000000000
Mg    8.41291625657    2.10322906414    0.00000000000
Mg    8.41291625657   -2.10322906414    0.00000000000
Mg    2.10322906414   -8.41291625657    0.00000000000
Mg   -2.10322906414   -8.41291625657    0.00000000000
Mg   -8.41291625657   -2.10322906414    0.00000000000
Mg   -8.41291625657    0.00000000000   -2.10322906414
Mg    0.00000000000    8.41291625657   -2.10322906414
Mg    8.41291625657    0.00000000000   -2.10322906414
Mg    0.00000000000   -8.41291625657   -2.10322906414
Mg   -6.30968719243    4.20645812828   -4.20645812828
Mg   -4.20645812828    6.30968719243   -4.20645812828
Mg    4.20645812828    6.30968719243   -4.20645812828
Mg    6.30968719243    4.20645812828   -4.20645812828
Mg    6.30968719243   -4.20645812828   -4.20645812828
Mg    4.20645812828   -6.30968719243   -4.20645812828
Mg   -4.20645812828   -6.30968719243   -4.20645812828
Mg   -6.30968719243   -4.20645812828   -4.20645812828
Mg   -4.20645812828    4.20645812828   -6.30968719243
Mg    4.20645812828    4.20645812828   -6.30968719243
Mg    4.20645812828   -4.20645812828   -6.30968719243
Mg   -4.20645812828   -4.20645812828   -6.30968719243
Mg   -2.10322906414    0.00000000000   -8.41291625657
Mg    0.00000000000    2.10322906414   -8.41291625657
Mg    2.10322906414    0.00000000000   -8.41291625657
Mg    0.00000000000   -2.10322906414   -8.41291625657
Mg   -6.30968719243    2.10322906414    6.30968719243
Mg   -2.10322906414    6.30968719243    6.30968719243
Mg    2.10322906414    6.30968719243    6.30968719243
Mg    6.30968719243    2.10322906414    6.30968719243
Mg    6.30968719243   -2.10322906414    6.30968719243
Mg    2.10322906414   -6.30968719243    6.30968719243
Mg   -2.10322906414   -6.30968719243    6.30968719243
Mg   -6.30968719243   -2.10322906414    6.30968719243
Mg   -6.30968719243    6.30968719243    2.10322906414
Mg    6.30968719243    6.30968719243    2.10322906414
Mg    6.30968719243   -6.30968719243    2.10322906414
Mg   -6.30968719243   -6.30968719243    2.10322906414
Mg   -6.30968719243    6.30968719243   -2.10322906414
Mg    6.30968719243    6.30968719243   -2.10322906414
Mg    6.30968719243   -6.30968719243   -2.10322906414
Mg   -6.30968719243   -6.30968719243   -2.10322906414
Mg   -6.30968719243    2.10322906414   -6.30968719243
Mg   -2.10322906414    6.30968719243   -6.30968719243
Mg    2.10322906414    6.30968719243   -6.30968719243
Mg    6.30968719243    2.10322906414   -6.30968719243
Mg    6.30968719243   -2.10322906414   -6.30968719243
Mg    2.10322906414   -6.30968719243   -6.30968719243
Mg   -2.10322906414   -6.30968719243   -6.30968719243
Mg   -6.30968719243   -2.10322906414   -6.30968719243
Mg   -4.20645812828    2.10322906414    8.41291625657
Mg   -2.10322906414    4.20645812828    8.41291625657
Mg    2.10322906414    4.20645812828    8.41291625657
Mg    4.20645812828    2.10322906414    8.41291625657
Mg    4.20645812828   -2.10322906414    8.41291625657
Mg    2.10322906414   -4.20645812828    8.41291625657
Mg   -2.10322906414   -4.20645812828    8.41291625657
Mg   -4.20645812828   -2.10322906414    8.41291625657
Mg   -8.41291625657    2.10322906414    4.20645812828
Mg   -2.10322906414    8.41291625657    4.20645812828
Mg    2.10322906414    8.41291625657    4.20645812828
Mg    8.41291625657    2.10322906414    4.20645812828
Mg    8.41291625657   -2.10322906414    4.20645812828
Mg    2.10322906414   -8.41291625657    4.20645812828
Mg   -2.10322906414   -8.41291625657    4.20645812828
Mg   -8.41291625657   -2.10322906414    4.20645812828
Mg   -8.41291625657    4.20645812828    2.10322906414
Mg   -4.20645812828    8.41291625657    2.10322906414
Mg    4.20645812828    8.41291625657    2.10322906414
Mg    8.41291625657    4.20645812828    2.10322906414
Mg    8.41291625657   -4.20645812828    2.10322906414
Mg    4.20645812828   -8.41291625657    2.10322906414
Mg   -4.20645812828   -8.41291625657    2.10322906414
Mg   -8.41291625657   -4.20645812828    2.10322906414
Mg   -8.41291625657    4.20645812828   -2.10322906414
Mg   -4.20645812828    8.41291625657   -2.10322906414
Mg    4.20645812828    8.41291625657   -2.10322906414
Mg    8.41291625657    4.20645812828   -2.10322906414
Mg    8.41291625657   -4.20645812828   -2.10322906414
Mg    4.20645812828   -8.41291625657   -2.10322906414
Mg   -4.20645812828   -8.41291625657   -2.10322906414
Mg   -8.41291625657   -4.20645812828   -2.10322906414
Mg   -8.41291625657    2.10322906414   -4.20645812828
Mg   -2.10322906414    8.41291625657   -4.20645812828
Mg    2.10322906414    8.41291625657   -4.20645812828
Mg    8.41291625657    2.10322906414   -4.20645812828
Mg    8.41291625657   -2.10322906414   -4.20645812828
Mg    2.10322906414   -8.41291625657   -4.20645812828
Mg   -2.10322906414   -8.41291625657   -4.20645812828
Mg   -8.41291625657   -2.10322906414   -4.20645812828
Mg   -4.20645812828    2.10322906414   -8.41291625657
Mg   -2.10322906414    4.20645812828   -8.41291625657
Mg    2.10322906414    4.20645812828   -8.41291625657
Mg    4.20645812828    2.10322906414   -8.41291625657
Mg    4.20645812828   -2.10322906414   -8.41291625657
Mg    2.10322906414   -4.20645812828   -8.41291625657
Mg   -2.10322906414   -4.20645812828   -8.41291625657
Mg   -4.20645812828   -2.10322906414   -8.41291625657
Mg    0.00000000000    0.00000000000   10.51614532071
Mg   -6.30968719243    0.00000000000    8.41291625657
Mg    0.00000000000    6.30968719243    8.41291625657
Mg    6.30968719243    0.00000000000    8.41291625657
Mg    0.00000000000   -6.30968719243    8.41291625657
Mg   -8.41291625657    0.00000000000    6.30968719243
Mg    0.00000000000    8.41291625657    6.30968719243
Mg    8.41291625657    0.00000000000    6.30968719243
Mg    0.00000000000   -8.41291625657    6.30968719243
Mg  -10.51614532071    0.00000000000    0.00000000000
Mg   -8.41291625657    6.30968719243    0.00000000000
Mg   -6.30968719243    8.41291625657    0.00000000000
Mg    0.00000000000   10.51614532071    0.00000000000
Mg    6.30968719243    8.41291625657    0.00000000000
Mg    8.41291625657    6.30968719243    0.00000000000
Mg   10.51614532071    0.00000000000    0.00000000000
Mg    8.41291625657   -6.30968719243    0.00000000000
Mg    6.30968719243   -8.41291625657    0.00000000000
Mg    0.00000000000  -10.51614532071    0.00000000000
Mg   -6.30968719243   -8.41291625657    0.00000000000
Mg   -8.41291625657   -6.30968719243    0.00000000000
Mg   -8.41291625657    0.00000000000   -6.30968719243
Mg    0.00000000000    8.41291625657   -6.30968719243
Mg    8.41291625657    0.00000000000   -6.30968719243
Mg    0.00000000000   -8.41291625657   -6.30968719243
Mg   -6.30968719243    0.00000000000   -8.41291625657
Mg    0.00000000000    6.30968719243   -8.41291625657
Mg    6.30968719243    0.00000000000   -8.41291625657
Mg    0.00000000000   -6.30968719243   -8.41291625657
Mg    0.00000000000    0.00000000000  -10.51614532071
Mg   -2.10322906414    2.10322906414   10.51614532071
Mg    2.10322906414    2.10322906414   10.51614532071
Mg    2.10322906414   -2.10322906414   10.51614532071
Mg   -2.10322906414   -2.10322906414   10.51614532071
Mg   -6.30968719243    6.30968719243    6.30968719243
Mg    6.30968719243    6.30968719243    6.30968719243
Mg    6.30968719243   -6.30968719243    6.30968719243
Mg   -6.30968719243   -6.30968719243    6.30968719243
Mg  -10.51614532071    2.10322906414    2.10322906414
Mg   -2.10322906414   10.51614532071    2.10322906414
Mg    2.10322906414   10.51614532071    2.10322906414
Mg   10.51614532071    2.10322906414    2.10322906414
Mg   10.51614532071   -2.10322906414    2.10322906414
Mg    2.10322906414  -10.51614532071    2.10322906414
Mg   -2.10322906414  -10.51614532071    2.10322906414
Mg  -10.51614532071   -2.10322906414    2.10322906414
Mg  -10.51614532071    2.10322906414   -2.10322906414
Mg   -2.10322906414   10.51614532071   -2.10322906414
Mg    2.10322906414   10.51614532071   -2.10322906414
Mg   10.51614532071    2.10322906414   -2.10322906414
Mg   10.51614532071   -2.10322906414   -2.10322906414
Mg    2.10322906414  -10.51614532071   -2.10322906414
Mg   -2.10322906414  -10.51614532071   -2.10322906414
Mg  -10.51614532071   -2.10322906414   -2.10322906414
Mg   -6.30968719243    6.30968719243   -6.30968719243
Mg    6.30968719243    6.30968719243   -6.30968719243
Mg    6.30968719243   -6.30968719243   -6.30968719243
Mg   -6.30968719243   -6.30968719243   -6.30968719243
Mg   -2.10322906414    2.10322906414  -10.51614532071
Mg    2.10322906414    2.10322906414  -10.51614532071
Mg    2.10322906414   -2.10322906414  -10.51614532071
Mg   -2.10322906414   -2.10322906414  -10.51614532071
Mg   -4.20645812828    0.00000000000   10.51614532071
Mg    0.00000000000    4.20645812828   10.51614532071
Mg    4.20645812828    0.00000000000   10.51614532071
Mg    0.00000000000   -4.20645812828   10.51614532071
Mg   -6.30968719243    4.20645812828    8.41291625657
Mg   -4.20645812828    6.30968719243    8.41291625657
Mg    4.20645812828    6.30968719243    8.41291625657
Mg    6.30968719243    4.20645812828    8.41291625657
Mg    6.30968719243   -4.20645812828    8.41291625657
Mg    4.20645812828   -6.30968719243    8.41291625657
Mg   -4.20645812828   -6.30968719243    8.41291625657
Mg   -6.30968719243   -4.20645812828    8.41291625657
Mg   -8.41291625657    4.20645812828    6.30968719243
Mg   -4.20645812828    8.41291625657    6.30968719243
Mg    4.20645812828    8.41291625657    6.30968719243
Mg    8.41291625657    4.20645812828    6.30968719243
Mg    8.41291625657   -4.20645812828    6.30968719243
Mg    4.20645812828   -8.41291625657    6.30968719243
Mg   -4.20645812828   -8.41291625657    6.30968719243
Mg   -8.41291625657   -4.20645812828    6.30968719243
Mg  -10.51614532071    0.00000000000    4.20645812828
Mg   -8.41291625657    6.30968719243    4.20645812828
Mg   -6.30968719243    8.41291625657    4.20645812828
Mg    0.00000000000   10.51614532071    4.20645812828
Mg    6.30968719243    8.41291625657    4.20645812828
Mg    8.41291625657    6.30968719243    4.20645812828
Mg   10.51614532071    0.00000000000    4.20645812828
Mg    8.41291625657   -6.30968719243    4.20645812828
Mg    6.30968719243   -8.41291625657    4.20645812828
Mg    0.00000000000  -10.51614532071    4.20645812828
Mg   -6.30968719243   -8.41291625657    4.20645812828
Mg   -8.41291625657   -6.30968719243    4.20645812828
Mg  -10.51614532071    4.20645812828    0.00000000000
Mg   -4.20645812828   10.51614532071    0.00000000000
Mg    4.20645812828   10.51614532071    0.00000000000
Mg   10.51614532071    4.20645812828    0.00000000000
Mg   10.51614532071   -4.20645812828    0.00000000000
Mg    4.20645812828  -10.51614532071    0.00000000000
Mg   -4.20645812828  -10.51614532071    0.00000000000
Mg  -10.51614532071   -4.20645812828    0.00000000000
Mg  -10.51614532071    0.00000000000   -4.20645812828
Mg   -8.41291625657    6.30968719243   -4.20645812828
Mg   -6.30968719243    8.41291625657   -4.20645812828
Mg    0.00000000000   10.51614532071   -4.20645812828
Mg    6.30968719243    8.41291625657   -4.20645812828
Mg    8.41291625657    6.30968719243   -4.20645812828
Mg   10.51614532071    0.00000000000   -4.20645812828
Mg    8.41291625657   -6.30968719243   -4.20645812828
Mg    6.30968719243   -8.41291625657   -4.20645812828
Mg    0.00000000000  -10.51614532071   -4.20645812828
Mg   -6.30968719243   -8.41291625657   -4.20645812828
Mg   -8.41291625657   -6.30968719243   -4.20645812828
Mg   -8.41291625657    4.20645812828   -6.30968719243
Mg   -4.20645812828    8.41291625657   -6.30968719243
Mg    4.20645812828    8.41291625657   -6.30968719243
Mg    8.41291625657    4.20645812828   -6.30968719243
Mg    8.41291625657   -4.20645812828   -6.30968719243
Mg    4.20645812828   -8.41291625657   -6.30968719243
Mg   -4.20645812828   -8.41291625657   -6.30968719243
Mg   -8.41291625657   -4.20645812828   -6.30968719243
Mg   -6.30968719243    4.20645812828   -8.41291625657
Mg   -4.20645812828    6.30968719243   -8.41291625657
Mg    4.20645812828    6.30968719243   -8.41291625657
Mg    6.30968719243    4.20645812828   -8.41291625657
Mg    6.30968719243   -4.20645812828   -8.41291625657
Mg    4.20645812828   -6.30968719243   -8.41291625657
Mg   -4.20645812828   -6.30968719243   -8.41291625657
Mg   -6.30968719243   -4.20645812828   -8.41291625657
Mg   -4.20645812828    0.00000000000  -10.51614532071
Mg    0.00000000000    4.20645812828  -10.51614532071
Mg    4.20645812828    0.00000000000  -10.51614532071
Mg    0.00000000000   -4.20645812828  -10.51614532071
Mg   -4.20645812828    4.20645812828   10.51614532071
Mg    4.20645812828    4.20645812828   10.51614532071
Mg    4.20645812828   -4.20645812828   10.51614532071
Mg   -4.20645812828   -4.20645812828   10.51614532071
Mg   -8.41291625657    2.10322906414    8.41291625657
Mg   -2.10322906414    8.41291625657    8.41291625657
Mg    2.10322906414    8.41291625657    8.41291625657
Mg    8.41291625657    2.10322906414    8.41291625657
Mg    8.41291625657   -2.10322906414    8.41291625657
Mg    2.10322906414   -8.41291625657    8.41291625657
Mg   -2.10322906414   -8.41291625657    8.41291625657
Mg   -8.41291625657   -2.10322906414    8.41291625657
Mg  -10.51614532071    4.20645812828    4.20645812828
Mg   -4.20645812828   10.51614532071    4.20645812828
Mg    4.20645812828   10.51614532071    4.20645812828
Mg   10.51614532071    4.20645812828    4.20645812828
Mg   10.51614532071   -4.20645812828    4.20645812828
Mg    4.20645812828  -10.51614532071    4.20645812828
Mg   -4.20645812828  -10.51614532071    4.20645812828
Mg  -10.51614532071   -4.20645812828    4.20645812828
Mg   -8.41291625657    8.41291625657    2.10322906414
Mg    8.41291625657    8.41291625657    2.10322906414
Mg    8.41291625657   -8.41291625657    2.10322906414
Mg   -8.41291625657   -8.41291625657    2.10322906414
Mg   -8.41291625657    8.41291625657   -2.10322906414
Mg    8.41291625657    8.41291625657   -2.10322906414
Mg    8.41291625657   -8.41291625657   -2.10322906414
Mg   -8.41291625657   -8.41291625657   -2.10322906414
Mg  -10.51614532071    4.20645812828   -4.20645812828
Mg   -4.20645812828   10.51614532071   -4.20645812828
Mg    4.20645812828   10.51614532071   -4.20645812828
Mg   10.51614532071    4.20645812828   -4.20645812828
Mg   10.51614532071   -4.20645812828   -4.20645812828
Mg    4.20645812828  -10.51614532071   -4.20645812828
Mg   -4.20645812828  -10.51614532071   -4.20645812828
Mg  -10.51614532071   -4.20645812828   -4.20645812828
Mg   -8.41291625657    2.10322906414   -8.41291625657
Mg   -2.10322906414    8.41291625657   -8.41291625657
Mg    2.10322906414    8.41291625657   -8.41291625657
Mg    8.41291625657    2.10322906414   -8.41291625657
Mg    8.41291625657   -2.10322906414   -8.41291625657
Mg    2.10322906414   -8.41291625657   -8.41291625657
Mg   -2.10322906414   -8.41291625657   -8.41291625657
Mg   -8.41291625657   -2.10322906414   -8.41291625657
Mg   -4.20645812828    4.20645812828  -10.51614532071
Mg    4.20645812828    4.20645812828  -10.51614532071
Mg    4.20645812828   -4.20645812828  -10.51614532071
Mg   -4.20645812828   -4.20645812828  -10.51614532071
Mg   -6.30968719243    2.10322906414   10.51614532071
Mg   -2.10322906414    6.30968719243   10.51614532071
Mg    2.10322906414    6.30968719243   10.51614532071
Mg    6.30968719243    2.10322906414   10.51614532071
Mg    6.30968719243   -2.10322906414   10.51614532071
Mg    2.10322906414   -6.30968719243   10.51614532071
Mg   -2.10322906414   -6.30968719243   10.51614532071
Mg   -6.30968719243   -2.10322906414   10.51614532071
Mg  -10.51614532071    2.10322906414    6.30968719243
Mg   -2.10322906414   10.51614532071    6.30968719243
Mg    2.10322906414   10.51614532071    6.30968719243
Mg   10.51614532071    2.10322906414    6.30968719243
Mg   10.51614532071   -2.10322906414    6.30968719243
Mg    2.10322906414  -10.51614532071    6.30968719243
Mg   -2.10322906414  -10.51614532071    6.30968719243
Mg  -10.51614532071   -2.10322906414    6.30968719243
Mg  -10.51614532071    6.30968719243    2.10322906414
Mg   -6.30968719243   10.51614532071    2.10322906414
Mg    6.30968719243   10.51614532071    2.10322906414
Mg   10.51614532071    6.30968719243    2.10322906414
Mg   10.51614532071   -6.30968719243    2.10322906414
Mg    6.30968719243  -10.51614532071    2.10322906414
Mg   -6.30968719243  -10.51614532071    2.10322906414
Mg  -10.51614532071   -6.30968719243    2.10322906414
Mg  -10.51614532071    6.30968719243   -2.10322906414
Mg   -6.30968719243   10.51614532071   -2.10322906414
Mg    6.30968719243   10.51614532071   -2.10322906414
Mg   10.51614532071    6.30968719243   -2.10322906414
Mg   10.51614532071   -6.30968719243   -2.10322906414
Mg    6.30968719243  -10.51614532071   -2.10322906414
Mg   -6.30968719243  -10.51614532071   -2.10322906414
Mg  -10.51614532071   -6.30968719243   -2.10322906414
Mg  -10.51614532071    2.10322906414   -6.30968719243
Mg   -2.10322906414   10.51614532071   -6.30968719243
Mg    2.10322906414   10.51614532071   -6.30968719243
Mg   10.51614532071    2.10322906414   -6.30968719243
Mg   10.51614532071   -2.10322906414   -6.30968719243
Mg    2.10322906414  -10.51614532071   -6.30968719243
Mg   -2.10322906414  -10.51614532071   -6.30968719243
Mg  -10.51614532071   -2.10322906414   -6.30968719243
Mg   -6.30968719243    2.10322906414  -10.51614532071
Mg   -2.10322906414    6.30968719243  -10.51614532071
Mg    2.10322906414    6.30968719243  -10.51614532071
Mg    6.30968719243    2.10322906414  -10.51614532071
Mg    6.30968719243   -2.10322906414  -10.51614532071
Mg    2.10322906414   -6.30968719243  -10.51614532071
Mg   -2.10322906414   -6.30968719243  -10.51614532071
Mg   -6.30968719243   -2.10322906414  -10.51614532071
Mg   -2.10322906414    0.00000000000   12.61937438485
Mg    0.00000000000    2.10322906414   12.61937438485
Mg    2.10322906414    0.00000000000   12.61937438485
Mg    0.00000000000   -2.10322906414   12.61937438485
Mg  -12.61937438485    0.00000000000    2.10322906414
Mg    0.00000000000   12.61937438485    2.10322906414
Mg   12.61937438485    0.00000000000    2.10322906414
Mg    0.00000000000  -12.61937438485    2.10322906414
Mg  -12.61937438485    2.10322906414    0.00000000000
Mg   -2.10322906414   12.61937438485    0.00000000000
Mg    2.10322906414   12.61937438485    0.00000000000
Mg   12.61937438485    2.10322906414    0.00000000000
Mg   12.61937438485   -2.10322906414    0.00000000000
Mg    2.10322906414  -12.61937438485    0.00000000000
Mg   -2.10322906414  -12.61937438485    0.00000000000
Mg  -12.61937438485   -2.10322906414    0.00000000000
Mg  -12.61937438485    0.00000000000   -2.10322906414
Mg    0.00000000000   12.61937438485   -2.10322906414
Mg   12.61937438485    0.00000000000   -2.10322906414
Mg    0.00000000000  -12.61937438485   -2.10322906414
Mg   -2.10322906414    0.00000000000  -12.61937438485
Mg    0.00000000000    2.10322906414  -12.61937438485
Mg    2.10322906414    0.00000000000  -12.61937438485
Mg    0.00000000000   -2.10322906414  -12.61937438485
Mg   -4.20645812828    2.10322906414   12.61937438485
Mg   -2.10322906414    4.20645812828   12.61937438485
Mg    2.10322906414    4.20645812828   12.61937438485
Mg    4.20645812828    2.10322906414   12.61937438485
Mg    4.20645812828   -2.10322906414   12.61937438485
Mg    2.10322906414   -4.20645812828   12.61937438485
Mg   -2.10322906414   -4.20645812828   12.61937438485
Mg   -4.20645812828   -2.10322906414   12.61937438485
Mg  -12.61937438485    2.10322906414    4.20645812828
Mg   -2.10322906414   12.61937438485    4.20645812828
Mg    2.10322906414   12.61937438485    4.20645812828
Mg   12.61937438485    2.10322906414    4.20645812828
Mg   12.61937438485   -2.10322906414    4.20645812828
Mg    2.10322906414  -12.61937438485    4.20645812828
Mg   -2.10322906414  -12.61937438485    4.20645812828
Mg  -12.61937438485   -2.10322906414    4.20645812828
Mg  -12.61937438485    4.20645812828    2.10322906414
Mg   -4.20645812828   12.61937438485    2.10322906414
Mg    4.20645812828   12.61937438485    2.10322906414
Mg   12.61937438485    4.20645812828    2.10322906414
Mg   12.61937438485   -4.20645812828    2.10322906414
Mg    4.20645812828  -12.61937438485    2.10322906414
Mg   -4.20645812828  -12.61937438485    2.10322906414
Mg  -12.61937438485   -4.20645812828    2.10322906414
Mg  -12.61937438485    4.20645812828   -2.10322906414
Mg   -4.20645812828   12.61937438485   -2.10322906414
Mg    4.20645812828   12.61937438485   -2.10322906414
Mg   12.61937438485    4.20645812828   -2.10322906414
Mg   12.61937438485   -4.20645812828   -2.10322906414
Mg    4.20645812828  -12.61937438485   -2.10322906414
Mg   -4.20645812828  -12.61937438485   -2.10322906414
Mg  -12.61937438485   -4.20645812828   -2.10322906414
Mg  -12.61937438485    2.10322906414   -4.20645812828
Mg   -2.10322906414   12.61937438485   -4.20645812828
Mg    2.10322906414   12.61937438485   -4.20645812828
Mg   12.61937438485    2.10322906414   -4.20645812828
Mg   12.61937438485   -2.10322906414   -4.20645812828
Mg    2.10322906414  -12.61937438485   -4.20645812828
Mg   -2.10322906414  -12.61937438485   -4.20645812828
Mg  -12.61937438485   -2.10322906414   -4.20645812828
Mg   -4.20645812828    2.10322906414  -12.61937438485
Mg   -2.10322906414    4.20645812828  -12.61937438485
Mg    2.10322906414    4.20645812828  -12.61937438485
Mg    4.20645812828    2.10322906414  -12.61937438485
Mg    4.20645812828   -2.10322906414  -12.61937438485
Mg    2.10322906414   -4.20645812828  -12.61937438485
Mg   -2.10322906414   -4.20645812828  -12.61937438485
Mg   -4.20645812828   -2.10322906414  -12.61937438485

qmmm=Amber
pointcharges
11604
     -4.20645812828    4.20645812828    4.20645812828   -2.00000000000
      4.20645812828    4.20645812828    4.20645812828   -2.00000000000
      4.20645812828   -4.20645812828    4.20645812828   -2.00000000000
     -4.20645812828   -4.20645812828    4.20645812828   -2.00000000000
     -4.20645812828    4.20645812828   -4.20645812828   -2.00000000000
      4.20645812828    4.20645812828   -4.20645812828   -2.00000000000
      4.20645812828   -4.20645812828   -4.20645812828   -2.00000000000
     -4.20645812828   -4.20645812828   -4.20645812828   -2.00000000000
     -4.20645812828    2.10322906414    6.30968719243   -2.00000000000
     -2.10322906414    4.20645812828    6.30968719243   -2.00000000000
      2.10322906414    4.20645812828    6.30968719243   -2.00000000000
      4.20645812828    2.10322906414    6.30968719243   -2.00000000000
      4.20645812828   -2.10322906414    6.30968719243   -2.00000000000
      2.10322906414   -4.20645812828    6.30968719243   -2.00000000000
     -2.10322906414   -4.20645812828    6.30968719243   -2.00000000000
     -4.20645812828   -2.10322906414    6.30968719243   -2.00000000000
     -6.30968719243    2.10322906414    4.20645812828   -2.00000000000
     -2.10322906414    6.30968719243    4.20645812828   -2.00000000000
      2.10322906414    6.30968719243    4.20645812828   -2.00000000000
      6.30968719243    2.10322906414    4.20645812828   -2.00000000000
      6.30968719243   -2.10322906414    4.20645812828   -2.00000000000
      2.10322906414   -6.30968719243    4.20645812828   -2.00000000000
     -2.10322906414   -6.30968719243    4.20645812828   -2.00000000000
     -6.30968719243   -2.10322906414    4.20645812828   -2.00000000000
     -6.30968719243    4.20645812828    2.10322906414   -2.00000000000
     -4.20645812828    6.30968719243    2.10322906414   -2.00000000000
      4.20645812828    6.30968719243    2.10322906414   -2.00000000000
      6.30968719243    4.20645812828    2.10322906414   -2.00000000000
      6.30968719243   -4.20645812828    2.10322906414   -2.00000000000
      4.20645812828   -6.30968719243    2.10322906414   -2.00000000000
     -4.20645812828   -6.30968719243    2.10322906414   -2.00000000000
     -6.30968719243   -4.20645812828    2.10322906414   -2.00000000000
     -6.30968719243    4.20645812828   -2.10322906414   -2.00000000000
     -4.20645812828    6.30968719243   -2.10322906414   -2.00000000000
      4.20645812828    6.30968719243   -2.10322906414   -2.00000000000
      6.30968719243    4.20645812828   -2.10322906414   -2.00000000000
      6.30968719243   -4.20645812828   -2.10322906414   -2.00000000000
      4.20645812828   -6.30968719243   -2.10322906414   -2.00000000000
     -4.20645812828   -6.30968719243   -2.10322906414   -2.00000000000
     -6.30968719243   -4.20645812828   -2.10322906414   -2.00000000000
     -6.30968719243    2.10322906414   -4.20645812828   -2.00000000000
     -2.10322906414    6.30968719243   -4.20645812828   -2.00000000000
      2.10322906414    6.30968719243   -4.20645812828   -2.00000000000
      6.30968719243    2.10322906414   -4.20645812828   -2.00000000000
      6.30968719243   -2.10322906414   -4.20645812828   -2.00000000000
      2.10322906414   -6.30968719243   -4.20645812828   -2.00000000000
     -2.10322906414   -6.30968719243   -4.20645812828   -2.00000000000
     -6.30968719243   -2.10322906414   -4.20645812828   -2.00000000000
     -4.20645812828    2.10322906414   -6.30968719243   -2.00000000000
     -2.10322906414    4.20645812828   -6.30968719243   -2.00000000000
      2.10322906414    4.20645812828   -6.30968719243   -2.00000000000
      4.20645812828    2.10322906414   -6.30968719243   -2.00000000000
      4.20645812828   -2.10322906414   -6.30968719243   -2.00000000000
      2.10322906414   -4.20645812828   -6.30968719243   -2.00000000000
     -2.10322906414   -4.20645812828   -6.30968719243   -2.00000000000
     -4.20645812828   -2.10322906414   -6.30968719243   -2.00000000000
      0.00000000000    0.00000000000    8.41291625657   -2.00000000000
     -8.41291625657    0.00000000000    0.00000000000   -2.00000000000
      0.00000000000    8.41291625657    0.00000000000   -2.00000000000
      8.41291625657    0.00000000000    0.00000000000   -2.00000000000
      0.00000000000   -8.41291625657    0.00000000000   -2.00000000000
      0.00000000000    0.00000000000   -8.41291625657   -2.00000000000
     -2.10322906414    2.10322906414    8.41291625657   -2.00000000000
      2.10322906414    2.10322906414    8.41291625657   -2.00000000000
      2.10322906414   -2.10322906414    8.41291625657   -2.00000000000
     -2.10322906414   -2.10322906414    8.41291625657   -2.00000000000
     -6.30968719243    0.00000000000    6.30968719243   -2.00000000000
      0.00000000000    6.30968719243    6.30968719243   -2.00000000000
      6.30968719243    0.00000000000    6.30968719243   -2.00000000000
      0.00000000000   -6.30968719243    6.30968719243   -2.00000000000
     -8.41291625657    2.10322906414    2.10322906414   -2.00000000000
     -2.10322906414    8.41291625657    2.10322906414   -2.00000000000
      2.10322906414    8.41291625657    2.10322906414   -2.00000000000
      8.41291625657    2.10322906414    2.10322906414   -2.00000000000
      8.41291625657   -2.10322906414    2.10322906414   -2.00000000000
      2.10322906414   -8.41291625657    2.10322906414   -2.00000000000
     -2.10322906414   -8.41291625657    2.10322906414   -2.00000000000
     -8.41291625657   -2.10322906414    2.10322906414   -2.00000000000
     -6.30968719243    6.30968719243    0.00000000000   -2.00000000000
      6.30968719243    6.30968719243    0.00000000000   -2.00000000000
      6.30968719243   -6.30968719243    0.00000000000   -2.00000000000
     -6.30968719243   -6.30968719243    0.00000000000   -2.00000000000
     -8.41291625657    2.10322906414   -2.10322906414   -2.00000000000
     -2.10322906414    8.41291625657   -2.10322906414   -2.00000000000
      2.10322906414    8.41291625657   -2.10322906414   -2.00000000000
      8.41291625657    2.10322906414   -2.10322906414   -2.00000000000
      8.41291625657   -2.10322906414   -2.10322906414   -2.00000000000
      2.10322906414   -8.41291625657   -2.10322906414   -2.00000000000
     -2.10322906414   -8.41291625657   -2.10322906414   -2.00000000000
     -8.41291625657   -2.10322906414   -2.10322906414   -2.00000000000
     -6.30968719243    0.00000000000   -6.30968719243   -2.00000000000
      0.00000000000    6.30968719243   -6.30968719243   -2.00000000000
      6.30968719243    0.00000000000   -6.30968719243   -2.00000000000
      0.00000000000   -6.30968719243   -6.30968719243   -2.00000000000
     -2.10322906414    2.10322906414   -8.41291625657   -2.00000000000
      2.10322906414    2.10322906414   -8.41291625657   -2.00000000000
      2.10322906414   -2.10322906414   -8.41291625657   -2.00000000000
     -2.10322906414   -2.10322906414   -8.41291625657   -2.00000000000
     -4.20645812828    0.00000000000    8.41291625657   -2.00000000000
      0.00000000000    4.20645812828    8.41291625657   -2.00000000000
      4.20645812828    0.00000000000    8.41291625657   -2.00000000000
      0.00000000000   -4.20645812828    8.41291625657   -2.00000000000
     -8.41291625657    0.00000000000    4.20645812828   -2.00000000000
      0.00000000000    8.41291625657    4.20645812828   -2.00000000000
      8.41291625657    0.00000000000    4.20645812828   -2.00000000000
      0.00000000000   -8.41291625657    4.20645812828   -2.00000000000
     -8.41291625657    4.20645812828    0.00000000000   -2.00000000000
     -4.20645812828    8.41291625657    0.00000000000   -2.00000000000
      4.20645812828    8.41291625657    0.00000000000   -2.00000000000
      8.41291625657    4.20645812828    0.00000000000   -2.00000000000
      8.41291625657   -4.20645812828    0.00000000000   -2.00000000000
      4.20645812828   -8.41291625657    0.00000000000   -2.00000000000
     -4.20645812828   -8.41291625657    0.00000000000   -2.00000000000
     -8.41291625657   -4.20645812828    0.00000000000   -2.00000000000
     -8.41291625657    0.00000000000   -4.20645812828   -2.00000000000
      0.00000000000    8.41291625657   -4.20645812828   -2.00000000000
      8.41291625657    0.00000000000   -4.20645812828   -2.00000000000
      0.00000000000   -8.41291625657   -4.20645812828   -2.00000000000
     -4.20645812828    0.00000000000   -8.41291625657   -2.00000000000
      0.00000000000    4.20645812828   -8.41291625657   -2.00000000000
      4.20645812828    0.00000000000   -8.41291625657   -2.00000000000
      0.00000000000   -4.20645812828   -8.41291625657   -2.00000000000
     -6.30968719243    4.20645812828    6.30968719243   -2.00000000000
     -4.20645812828    6.30968719243    6.30968719243   -2.00000000000
      4.20645812828    6.30968719243    6.30968719243   -2.00000000000
      6.30968719243    4.20645812828    6.30968719243   -2.00000000000
      6.30968719243   -4.20645812828    6.30968719243   -2.00000000000
      4.20645812828   -6.30968719243    6.30968719243   -2.00000000000
     -4.20645812828   -6.30968719243    6.30968719243   -2.00000000000
     -6.30968719243   -4.20645812828    6.30968719243   -2.00000000000
     -6.30968719243    6.30968719243    4.20645812828   -2.00000000000
      6.30968719243    6.30968719243    4.20645812828   -2.00000000000
      6.30968719243   -6.30968719243    4.20645812828   -2.00000000000
     -6.30968719243   -6.30968719243    4.20645812828   -2.00000000000
     -6.30968719243    6.30968719243   -4.20645812828   -2.00000000000
      6.30968719243    6.30968719243   -4.20645812828   -2.00000000000
      6.30968719243   -6.30968719243   -4.20645812828   -2.00000000000
     -6.30968719243   -6.30968719243   -4.20645812828   -2.00000000000
     -6.30968719243    4.20645812828   -6.30968719243   -2.00000000000
     -4.20645812828    6.30968719243   -6.30968719243   -2.00000000000
      4.20645812828    6.30968719243   -6.30968719243   -2.00000000000
      6.30968719243    4.20645812828   -6.30968719243   -2.00000000000
      6.30968719243   -4.20645812828   -6.30968719243   -2.00000000000
      4.20645812828   -6.30968719243   -6.30968719243   -2.00000000000
     -4.20645812828   -6.30968719243   -6.30968719243   -2.00000000000
     -6.30968719243   -4.20645812828   -6.30968719243   -2.00000000000
     -4.20645812828    4.20645812828    8.41291625657   -2.00000000000
      4.20645812828    4.20645812828    8.41291625657   -2.00000000000
      4.20645812828   -4.20645812828    8.41291625657   -2.00000000000
     -4.20645812828   -4.20645812828    8.41291625657   -2.00000000000
     -8.41291625657    4.20645812828    4.20645812828   -2.00000000000
     -4.20645812828    8.41291625657    4.20645812828   -2.00000000000
      4.20645812828    8.41291625657    4.20645812828   -2.00000000000
      8.41291625657    4.20645812828    4.20645812828   -2.00000000000
      8.41291625657   -4.20645812828    4.20645812828   -2.00000000000
      4.20645812828   -8.41291625657    4.20645812828   -2.00000000000
     -4.20645812828   -8.41291625657    4.20645812828   -2.00000000000
     -8.41291625657   -4.20645812828    4.20645812828   -2.00000000000
     -8.41291625657    4.20645812828   -4.20645812828   -2.00000000000
     -4.20645812828    8.41291625657   -4.20645812828   -2.00000000000
      4.20645812828    8.41291625657   -4.20645812828   -2.00000000000
      8.41291625657    4.20645812828   -4.20645812828   -2.00000000000
      8.41291625657   -4.20645812828   -4.20645812828   -2.00000000000
      4.20645812828   -8.41291625657   -4.20645812828   -2.00000000000
     -4.20645812828   -8.41291625657   -4.20645812828   -2.00000000000
     -8.41291625657   -4.20645812828   -4.20645812828   -2.00000000000
     -4.20645812828    4.20645812828   -8.41291625657   -2.00000000000
      4.20645812828    4.20645812828   -8.41291625657   -2.00000000000
      4.20645812828   -4.20645812828   -8.41291625657   -2.00000000000
     -4.20645812828   -4.20645812828   -8.41291625657   -2.00000000000
     -2.10322906414    0.00000000000   10.51614532071   -2.00000000000
      0.00000000000    2.10322906414   10.51614532071   -2.00000000000
      2.10322906414    0.00000000000   10.51614532071   -2.00000000000
      0.00000000000   -2.10322906414   10.51614532071   -2.00000000000
     -6.30968719243    2.10322906414    8.41291625657   -2.00000000000
     -2.10322906414    6.30968719243    8.41291625657   -2.00000000000
      2.10322906414    6.30968719243    8.41291625657   -2.00000000000
      6.30968719243    2.10322906414    8.41291625657   -2.00000000000
      6.30968719243   -2.10322906414    8.41291625657   -2.00000000000
      2.10322906414   -6.30968719243    8.41291625657   -2.00000000000
     -2.10322906414   -6.30968719243    8.41291625657   -2.00000000000
     -6.30968719243   -2.10322906414    8.41291625657   -2.00000000000
     -8.41291625657    2.10322906414    6.30968719243   -2.00000000000
     -2.10322906414    8.41291625657    6.30968719243   -2.00000000000
      2.10322906414    8.41291625657    6.30968719243   -2.00000000000
      8.41291625657    2.10322906414    6.30968719243   -2.00000000000
      8.41291625657   -2.10322906414    6.30968719243   -2.00000000000
      2.10322906414   -8.41291625657    6.30968719243   -2.00000000000
     -2.10322906414   -8.41291625657    6.30968719243   -2.00000000000
     -8.41291625657   -2.10322906414    6.30968719243   -2.00000000000
    -10.51614532071    0.00000000000    2.10322906414   -2.00000000000
     -8.41291625657    6.30968719243    2.10322906414   -2.00000000000
     -6.30968719243    8.41291625657    2.10322906414   -2.00000000000
      0.00000000000   10.51614532071    2.10322906414   -2.00000000000
      6.30968719243    8.41291625657    2.10322906414   -2.00000000000
      8.41291625657    6.30968719243    2.10322906414   -2.00000000000
     10.51614532071    0.00000000000    2.10322906414   -2.00000000000
      8.41291625657   -6.30968719243    2.10322906414   -2.00000000000
      6.30968719243   -8.41291625657    2.10322906414   -2.00000000000
      0.00000000000  -10.51614532071    2.10322906414   -2.00000000000
     -6.30968719243   -8.41291625657    2.10322906414   -2.00000000000
     -8.41291625657   -6.30968719243    2.10322906414   -2.00000000000
    -10.51614532071    2.10322906414    0.00000000000   -2.00000000000
     -2.10322906414   10.51614532071    0.00000000000   -2.00000000000
      2.10322906414   10.51614532071    0.00000000000   -2.00000000000
     10.51614532071    2.10322906414    0.00000000000   -2.00000000000
     10.51614532071   -2.10322906414    0.00000000000   -2.00000000000
      2.10322906414  -10.51614532071    0.00000000000   -2.00000000000
     -2.10322906414  -10.51614532071    0.00000000000   -2.00000000000
    -10.51614532071   -2.10322906414    0.00000000000   -2.00000000000
    -10.51614532071    0.00000000000   -2.10322906414   -2.00000000000
     -8.41291625657    6.30968719243   -2.10322906414   -2.00000000000
     -6.30968719243    8.41291625657   -2.10322906414   -2.00000000000
      0.00000000000   10.51614532071   -2.10322906414   -2.00000000000
      6.30968719243    8.41291625657   -2.10322906414   -2.00000000000
      8.41291625657    6.30968719243   -2.10322906414   -2.00000000000
     10.51614532071    0.00000000000   -2.10322906414   -2.00000000000
      8.41291625657   -6.30968719243   -2.10322906414   -2.00000000000
      6.30968719243   -8.41291625657   -2.10322906414   -2.00000000000
      0.00000000000  -10.51614532071   -2.10322906414   -2.00000000000
     -6.30968719243   -8.41291625657   -2.10322906414   -2.00000000000
     -8.41291625657   -6.30968719243   -2.10322906414   -2.00000000000
     -8.41291625657    2.10322906414   -6.30968719243   -2.00000000000
     -2.10322906414    8.41291625657   -6.30968719243   -2.00000000000
      2.10322906414    8.41291625657   -6.30968719243   -2.00000000000
      8.41291625657    2.10322906414   -6.30968719243   -2.00000000000
      8.41291625657   -2.10322906414   -6.30968719243   -2.00000000000
      2.10322906414   -8.41291625657   -6.30968719243   -2.00000000000
     -2.10322906414   -8.41291625657   -6.30968719243   -2.00000000000
     -8.41291625657   -2.10322906414   -6.30968719243   -2.00000000000
     -6.30968719243    2.10322906414   -8.41291625657   -2.00000000000
     -2.10322906414    6.30968719243   -8.41291625657   -2.00000000000
      2.10322906414    6.30968719243   -8.41291625657   -2.00000000000
      6.30968719243    2.10322906414   -8.41291625657   -2.00000000000
      6.30968719243   -2.10322906414   -8.41291625657   -2.00000000000
      2.10322906414   -6.30968719243   -8.41291625657   -2.00000000000
     -2.10322906414   -6.30968719243   -8.41291625657   -2.00000000000
     -6.30968719243   -2.10322906414   -8.41291625657   -2.00000000000
     -2.10322906414    0.00000000000  -10.51614532071   -2.00000000000
      0.00000000000    2.10322906414  -10.51614532071   -2.00000000000
      2.10322906414    0.00000000000  -10.51614532071   -2.00000000000
      0.00000000000   -2.10322906414  -10.51614532071   -2.00000000000
     -4.20645812828    2.10322906414   10.51614532071   -2.00000000000
     -2.10322906414    4.20645812828   10.51614532071   -2.00000000000
      2.10322906414    4.20645812828   10.51614532071   -2.00000000000
      4.20645812828    2.10322906414   10.51614532071   -2.00000000000
      4.20645812828   -2.10322906414   10.51614532071   -2.00000000000
      2.10322906414   -4.20645812828   10.51614532071   -2.00000000000
     -2.10322906414   -4.20645812828   10.51614532071   -2.00000000000
     -4.20645812828   -2.10322906414   10.51614532071   -2.00000000000
    -10.51614532071    2.10322906414    4.20645812828   -2.00000000000
     -2.10322906414   10.51614532071    4.20645812828   -2.00000000000
      2.10322906414   10.51614532071    4.20645812828   -2.00000000000
     10.51614532071    2.10322906414    4.20645812828   -2.00000000000
     10.51614532071   -2.10322906414    4.20645812828   -2.00000000000
      2.10322906414  -10.51614532071    4.20645812828   -2.00000000000
     -2.10322906414  -10.51614532071    4.20645812828   -2.00000000000
    -10.51614532071   -2.10322906414    4.20645812828   -2.00000000000
    -10.51614532071    4.20645812828    2.10322906414   -2.00000000000
     -4.20645812828   10.51614532071    2.10322906414   -2.00000000000
      4.20645812828   10.51614532071    2.10322906414   -2.00000000000
     10.51614532071    4.20645812828    2.10322906414   -2.00000000000
     10.51614532071   -4.20645812828    2.10322906414   -2.00000000000
      4.20645812828  -10.51614532071    2.10322906414   -2.00000000000
     -4.20645812828  -10.51614532071    2.10322906414   -2.00000000000
    -10.51614532071   -4.20645812828    2.10322906414   -2.00000000000
    -10.51614532071    4.20645812828   -2.10322906414   -2.00000000000
     -4.20645812828   10.51614532071   -2.10322906414   -2.00000000000
      4.20645812828   10.51614532071   -2.10322906414   -2.00000000000
     10.51614532071    4.20645812828   -2.10322906414   -2.00000000000
     10.51614532071   -4.20645812828   -2.10322906414   -2.00000000000
      4.20645812828  -10.51614532071   -2.10322906414   -2.00000000000
     -4.20645812828  -10.51614532071   -2.10322906414   -2.00000000000
    -10.51614532071   -4.20645812828   -2.10322906414   -2.00000000000
    -10.51614532071    2.10322906414   -4.20645812828   -2.00000000000
     -2.10322906414   10.51614532071   -4.20645812828   -2.00000000000
      2.10322906414   10.51614532071   -4.20645812828   -2.00000000000
     10.51614532071    2.10322906414   -4.20645812828   -2.00000000000
     10.51614532071   -2.10322906414   -4.20645812828   -2.00000000000
      2.10322906414  -10.51614532071   -4.20645812828   -2.00000000000
     -2.10322906414  -10.51614532071   -4.20645812828   -2.00000000000
    -10.51614532071   -2.10322906414   -4.20645812828   -2.00000000000
     -4.20645812828    2.10322906414  -10.51614532071   -2.00000000000
     -2.10322906414    4.20645812828  -10.51614532071   -2.00000000000
      2.10322906414    4.20645812828  -10.51614532071   -2.00000000000
      4.20645812828    2.10322906414  -10.51614532071   -2.00000000000
      4.20645812828   -2.10322906414  -10.51614532071   -2.00000000000
      2.10322906414   -4.20645812828  -10.51614532071   -2.00000000000
     -2.10322906414   -4.20645812828  -10.51614532071   -2.00000000000
     -4.20645812828   -2.10322906414  -10.51614532071   -2.00000000000
     -8.41291625657    0.00000000000    8.41291625657   -2.00000000000
      0.00000000000    8.41291625657    8.41291625657   -2.00000000000
      8.41291625657    0.00000000000    8.41291625657   -2.00000000000
      0.00000000000   -8.41291625657    8.41291625657   -2.00000000000
     -8.41291625657    8.41291625657    0.00000000000   -2.00000000000
      8.41291625657    8.41291625657    0.00000000000   -2.00000000000
      8.41291625657   -8.41291625657    0.00000000000   -2.00000000000
     -8.41291625657   -8.41291625657    0.00000000000   -2.00000000000
     -8.41291625657    0.00000000000   -8.41291625657   -2.00000000000
      0.00000000000    8.41291625657   -8.41291625657   -2.00000000000
      8.41291625657    0.00000000000   -8.41291625657   -2.00000000000
      0.00000000000   -8.41291625657   -8.41291625657   -2.00000000000
     -6.30968719243    0.00000000000   10.51614532071   -2.00000000000
      0.00000000000    6.30968719243   10.51614532071   -2.00000000000
      6.30968719243    0.00000000000   10.51614532071   -2.00000000000
      0.00000000000   -6.30968719243   10.51614532071   -2.00000000000
    -10.51614532071    0.00000000000    6.30968719243   -2.00000000000
      0.00000000000   10.51614532071    6.30968719243   -2.00000000000
     10.51614532071    0.00000000000    6.30968719243   -2.00000000000
      0.00000000000  -10.51614532071    6.30968719243   -2.00000000000
    -10.51614532071    6.30968719243    0.00000000000   -2.00000000000
     -6.30968719243   10.51614532071    0.00000000000   -2.00000000000
      6.30968719243   10.51614532071    0.00000000000   -2.00000000000
     10.51614532071    6.30968719243    0.00000000000   -2.00000000000
     10.51614532071   -6.30968719243    0.00000000000   -2.00000000000
      6.30968719243  -10.51614532071    0.00000000000   -2.00000000000
     -6.30968719243  -10.51614532071    0.00000000000   -2.00000000000
    -10.51614532071   -6.30968719243    0.00000000000   -2.00000000000
    -10.51614532071    0.00000000000   -6.30968719243   -2.00000000000
      0.00000000000   10.51614532071   -6.30968719243   -2.00000000000
     10.51614532071    0.00000000000   -6.30968719243   -2.00000000000
      0.00000000000  -10.51614532071   -6.30968719243   -2.00000000000
     -6.30968719243    0.00000000000  -10.51614532071   -2.00000000000
      0.00000000000    6.30968719243  -10.51614532071   -2.00000000000
      6.30968719243    0.00000000000  -10.51614532071   -2.00000000000
      0.00000000000   -6.30968719243  -10.51614532071   -2.00000000000
      0.00000000000    0.00000000000   12.61937438485   -2.00000000000
    -12.61937438485    0.00000000000    0.00000000000   -2.00000000000
      0.00000000000   12.61937438485    0.00000000000   -2.00000000000
     12.61937438485    0.00000000000    0.00000000000   -2.00000000000
      0.00000000000  -12.61937438485    0.00000000000   -2.00000000000
      0.00000000000    0.00000000000  -12.61937438485   -2.00000000000
     -2.10322906414    2.10322906414   12.61937438485   -2.00000000000
      2.10322906414    2.10322906414   12.61937438485   -2.00000000000
      2.10322906414   -2.10322906414   12.61937438485   -2.00000000000
     -2.10322906414   -2.10322906414   12.61937438485   -2.00000000000
    -12.61937438485    2.10322906414    2.10322906414   -2.00000000000
     -2.10322906414   12.61937438485    2.10322906414   -2.00000000000
      2.10322906414   12.61937438485    2.10322906414   -2.00000000000
     12.61937438485    2.10322906414    2.10322906414   -2.00000000000
     12.61937438485   -2.10322906414    2.10322906414   -2.00000000000
      2.10322906414  -12.61937438485    2.10322906414   -2.00000000000
     -2.10322906414  -12.61937438485    2.10322906414   -2.00000000000
    -12.61937438485   -2.10322906414    2.10322906414   -2.00000000000
    -12.61937438485    2.10322906414   -2.10322906414   -2.00000000000
     -2.10322906414   12.61937438485   -2.10322906414   -2.00000000000
      2.10322906414   12.61937438485   -2.10322906414   -2.00000000000
     12.61937438485    2.10322906414   -2.10322906414   -2.00000000000
     12.61937438485   -2.10322906414   -2.10322906414   -2.00000000000
      2.10322906414  -12.61937438485   -2.10322906414   -2.00000000000
     -2.10322906414  -12.61937438485   -2.10322906414   -2.00000000000
    -12.61937438485   -2.10322906414   -2.10322906414   -2.00000000000
     -2.10322906414    2.10322906414  -12.61937438485   -2.00000000000
      2.10322906414    2.10322906414  -12.61937438485   -2.00000000000
      2.10322906414   -2.10322906414  -12.61937438485   -2.00000000000
     -2.10322906414   -2.10322906414  -12.61937438485   -2.00000000000
     -4.20645812828    0.00000000000   12.61937438485   -2.00000000000
      0.00000000000    4.20645812828   12.61937438485   -2.00000000000
      4.20645812828    0.00000000000   12.61937438485   -2.00000000000
      0.00000000000   -4.20645812828   12.61937438485   -2.00000000000
    -12.61937438485    0.00000000000    4.20645812828   -2.00000000000
      0.00000000000   12.61937438485    4.20645812828   -2.00000000000
     12.61937438485    0.00000000000    4.20645812828   -2.00000000000
      0.00000000000  -12.61937438485    4.20645812828   -2.00000000000
    -12.61937438485    4.20645812828    0.00000000000   -2.00000000000
     -4.20645812828   12.61937438485    0.00000000000   -2.00000000000
      4.20645812828   12.61937438485    0.00000000000   -2.00000000000
     12.61937438485    4.20645812828    0.00000000000   -2.00000000000
     12.61937438485   -4.20645812828    0.00000000000   -2.00000000000
      4.20645812828  -12.61937438485    0.00000000000   -2.00000000000
     -4.20645812828  -12.61937438485    0.00000000000   -2.00000000000
    -12.61937438485   -4.20645812828    0.00000000000   -2.00000000000
    -12.61937438485    0.00000000000   -4.20645812828   -2.00000000000
      0.00000000000   12.61937438485   -4.20645812828   -2.00000000000
     12.61937438485    0.00000000000   -4.20645812828   -2.00000000000
      0.00000000000  -12.61937438485   -4.20645812828   -2.00000000000
     -4.20645812828    0.00000000000  -12.61937438485   -2.00000000000
      0.00000000000    4.20645812828  -12.61937438485   -2.00000000000
      4.20645812828    0.00000000000  -12.61937438485   -2.00000000000
      0.00000000000   -4.20645812828  -12.61937438485   -2.00000000000
     -6.30968719243    6.30968719243    8.41291625657   -2.00000000000
      6.30968719243    6.30968719243    8.41291625657   -2.00000000000
      6.30968719243   -6.30968719243    8.41291625657   -2.00000000000
     -6.30968719243   -6.30968719243    8.41291625657   -2.00000000000
     -8.41291625657    6.30968719243    6.30968719243   -2.00000000000
     -6.30968719243    8.41291625657    6.30968719243   -2.00000000000
      6.30968719243    8.41291625657    6.30968719243   -2.00000000000
      8.41291625657    6.30968719243    6.30968719243   -2.00000000000
      8.41291625657   -6.30968719243    6.30968719243   -2.00000000000
      6.30968719243   -8.41291625657    6.30968719243   -2.00000000000
     -6.30968719243   -8.41291625657    6.30968719243   -2.00000000000
     -8.41291625657   -6.30968719243    6.30968719243   -2.00000000000
     -8.41291625657    6.30968719243   -6.30968719243   -2.00000000000
     -6.30968719243    8.41291625657   -6.30968719243   -2.00000000000
      6.30968719243    8.41291625657   -6.30968719243   -2.00000000000
      8.41291625657    6.30968719243   -6.30968719243   -2.00000000000
      8.41291625657   -6.30968719243   -6.30968719243   -2.00000000000
      6.30968719243   -8.41291625657   -6.30968719243   -2.00000000000
     -6.30968719243   -8.41291625657   -6.30968719243   -2.00000000000
     -8.41291625657   -6.30968719243   -6.30968719243   -2.00000000000
     -6.30968719243    6.30968719243   -8.41291625657   -2.00000000000
      6.30968719243    6.30968719243   -8.41291625657   -2.00000000000
      6.30968719243   -6.30968719243   -8.41291625657   -2.00000000000
     -6.30968719243   -6.30968719243   -8.41291625657   -2.00000000000
     -8.41291625657    4.20645812828    8.41291625657   -2.00000000000
     -4.20645812828    8.41291625657    8.41291625657   -2.00000000000
      4.20645812828    8.41291625657    8.41291625657   -2.00000000000
      8.41291625657    4.20645812828    8.41291625657   -2.00000000000
      8.41291625657   -4.20645812828    8.41291625657   -2.00000000000
      4.20645812828   -8.41291625657    8.41291625657   -2.00000000000
     -4.20645812828   -8.41291625657    8.41291625657   -2.00000000000
     -8.41291625657   -4.20645812828    8.41291625657   -2.00000000000
     -8.41291625657    8.41291625657    4.20645812828   -2.00000000000
      8.41291625657    8.41291625657    4.20645812828   -2.00000000000
      8.41291625657   -8.41291625657    4.20645812828   -2.00000000000
     -8.41291625657   -8.41291625657    4.20645812828   -2.00000000000
     -8.41291625657    8.41291625657   -4.20645812828   -2.00000000000
      8.41291625657    8.41291625657   -4.20645812828   -2.00000000000
      8.41291625657   -8.41291625657   -4.20645812828   -2.00000000000
     -8.41291625657   -8.41291625657   -4.20645812828   -2.00000000000
     -8.41291625657    4.20645812828   -8.41291625657   -2.00000000000
     -4.20645812828    8.41291625657   -8.41291625657   -2.00000000000
      4.20645812828    8.41291625657   -8.41291625657   -2.00000000000
      8.41291625657    4.20645812828   -8.41291625657   -2.00000000000
      8.41291625657   -4.20645812828   -8.41291625657   -2.00000000000
[...]
 3206   A          6.416355       6.416355
 3207   A          6.416355       6.416355
 3208   A          6.416906       6.416906
 3209   A          6.416907       6.416907
 3210   A          6.416908       6.416908
 3211   A          6.417622       6.417622
 3212   A          6.420261       6.420261
 3213   A          6.420261       6.420261
 3214   A          6.420261       6.420261
 3215   A          6.427449       6.427449
 3216   A          6.427449       6.427449
 3217   A          6.427449       6.427449
 3218   A          6.427701       6.427701
 3219   A          6.427701       6.427701
 3220   A          6.429498       6.429498
 3221   A          6.429498       6.429498
 3222   A          6.429498       6.429498
 3223   A          6.431299       6.431299
 3224   A          6.434817       6.434817
 3225   A          6.434817       6.434817
 3226   A          6.434817       6.434817
 3227   A          6.442024       6.442024
 3228   A          6.442024       6.442024
 3229   A          6.442024       6.442024
 3230   A          6.449379       6.449379
 3231   A          6.449379       6.449379
 3232   A          6.460771       6.460771
 3233   A          6.460771       6.460771
 3234   A          6.463739       6.463739
 3235   A          6.463740       6.463740
 3236   A          6.463740       6.463740
 3237   A          6.464827       6.464827
 3238   A          6.464827       6.464827
 3239   A          6.464827       6.464827
 3240   A          6.475936       6.475936
 3241   A          6.476389       6.476389
 3242   A          6.476389       6.476389
 3243   A          6.476389       6.476389
 3244   A          6.481048       6.481048
 3245   A          6.481048       6.481048
 3246   A          6.481048       6.481048
 3247   A          6.485259       6.485259
 3248   A          6.485259       6.485259
 3249   A          6.485259       6.485259
 3250   A          6.487565       6.487565
 3251   A          6.487565       6.487565
 3252   A          6.487565       6.487565
 3253   A          6.493876       6.493876
 3254   A          6.494436       6.494436
 3255   A          6.494436       6.494436
 3256   A          6.494436       6.494436
 3257   A          6.507984       6.507984
 3258   A          6.507984       6.507984
 3259   A          6.510740       6.510740
 3260   A          6.510740       6.510740
 3261   A          6.510740       6.510740
 3262   A          6.513224       6.513224
 3263   A          6.513224       6.513224
 3264   A          6.515399       6.515399
 3265   A          6.519641       6.519641
 3266   A          6.519641       6.519641
 3267   A          6.519641       6.519641
 3268   A          6.522033       6.522033
 3269   A          6.522033       6.522033
 3270   A          6.522033       6.522033
 3271   A          6.524767       6.524767
 3272   A          6.524767       6.524767
 3273   A          6.524767       6.524767
 3274   A          6.528831       6.528831
 3275   A          6.528831       6.528831
 3276   A          6.528831       6.528831
 3277   A          6.532946       6.532946
 3278   A          6.532946       6.532946
 3279   A          6.532946       6.532946
 3280   A          6.535304       6.535304
 3281   A          6.535304       6.535304
 3282   A          6.535304       6.535304
 3283   A          6.535619       6.535619
 3284   A          6.542170       6.542170
 3285   A          6.542170       6.542170
 3286   A          6.542170       6.542170
 3287   A          6.545716       6.545716
 3288   A          6.545716       6.545716
 3289   A          6.549095       6.549095
 3290   A          6.549095       6.549095
 3291   A          6.549095       6.549095
 3292   A          6.552054       6.552054
 3293   A          6.552055       6.552055
 3294   A          6.553451       6.553451
 3295   A          6.553451       6.553451
 3296   A          6.553451       6.553451
 3297   A          6.561453       6.561453
 3298   A          6.561454       6.561454
 3299   A          6.561454       6.561454
 3300   A          6.562977       6.562977
 3301   A          6.562978       6.562978
 3302   A          6.563886       6.563886
 3303   A          6.563886       6.563886
 3304   A          6.563886       6.563886
 3305   A          6.563980       6.563980
 3306   A          6.568403       6.568403
 3307   A          6.568403       6.568403
 3308   A          6.568403       6.568403
 3309   A          6.569611       6.569611
 3310   A          6.569611       6.569611
 3311   A          6.569611       6.569611
 3312   A          6.570105       6.570105
 3313   A          6.570607       6.570607
 3314   A          6.572950       6.572950
 3315   A          6.572950       6.572950
 3316   A          6.572950       6.572950
 3317   A          6.573942       6.573942
 3318   A          6.573942       6.573942
 3319   A          6.580837       6.580837
 3320   A          6.580837       6.580837
 3321   A          6.580837       6.580837
 3322   A          6.583433       6.583433
 3323   A          6.583434       6.583434
 3324   A          6.583434       6.583434
 3325   A          6.585332       6.585332
 3326   A          6.585332       6.585332
 3327   A          6.587541       6.587541
 3328   A          6.587542       6.587542
 3329   A          6.587542       6.587542
 3330   A          6.588232       6.588232
 3331   A          6.588232       6.588232
 3332   A          6.588232       6.588232
 3333   A          6.589278       6.589278
 3334   A          6.589278       6.589278
 3335   A          6.589278       6.589278
 3336   A          6.591237       6.591237
 3337   A          6.591238       6.591238
 3338   A          6.592340       6.592340
 3339   A          6.592543       6.592543
 3340   A          6.592543       6.592543
 3341   A          6.592543       6.592543
 3342   A          6.593927       6.593927
 3343   A          6.595346       6.595346
 3344   A          6.595347       6.595347
 3345   A          6.599938       6.599938
 3346   A          6.599938       6.599938
 3347   A          6.599938       6.599938
 3348   A          6.601734       6.601734
 3349   A          6.601734       6.601734
 3350   A          6.601734       6.601734
 3351   A          6.602183       6.602183
 3352   A          6.606866       6.606866
 3353   A          6.607726       6.607726
 3354   A          6.607726       6.607726
 3355   A          6.607726       6.607726
 3356   A          6.608635       6.608635
 3357   A          6.608635       6.608635
 3358   A          6.608635       6.608635
 3359   A          6.613565       6.613565
 3360   A          6.613565       6.613565
 3361   A          6.613565       6.613565
 3362   A          6.614235       6.614235
 3363   A          6.614235       6.614235
 3364   A          6.614235       6.614235
 3365   A          6.616840       6.616840
 3366   A          6.616840       6.616840
 3367   A          6.616840       6.616840
 3368   A          6.619438       6.619438
 3369   A          6.619438       6.619438
 3370   A          6.620698       6.620698
 3371   A          6.620698       6.620698
 3372   A          6.620701       6.620701
 3373   A          6.620701       6.620701
 3374   A          6.620702       6.620702
 3375   A          6.623153       6.623153
 3376   A          6.623153       6.623153
 3377   A          6.623153       6.623153
 3378   A          6.634851       6.634851
 3379   A          6.637559       6.637559
 3380   A          6.637559       6.637559
 3381   A          6.637971       6.637971
 3382   A          6.644615       6.644615
 3383   A          6.644615       6.644615
 3384   A          6.644615       6.644615
 3385   A          6.645652       6.645652
 3386   A          6.645652       6.645652
 3387   A          6.645652       6.645652
 3388   A          6.653851       6.653851
 3389   A          6.653851       6.653851
 3390   A          6.653851       6.653851
 3391   A          6.656384       6.656384
 3392   A          6.656384       6.656384
 3393   A          6.656384       6.656384
 3394   A          6.657618       6.657618
 3395   A          6.657618       6.657618
 3396   A          6.657618       6.657618
 3397   A          6.668427       6.668427
 3398   A          6.668427       6.668427
 3399   A          6.668427       6.668427
 3400   A          6.669539       6.669539
 3401   A          6.669539       6.669539
 3402   A          6.669539       6.669539
 3403   A          6.670078       6.670078
 3404   A          6.670078       6.670078
 3405   A          6.674208       6.674208
 3406   A          6.674208       6.674208
 3407   A          6.674208       6.674208
 3408   A          6.675889       6.675889
 3409   A          6.686592       6.686592
 3410   A          6.690130       6.690130
 3411   A          6.690130       6.690130
 3412   A          6.696142       6.696142
 3413   A          6.696142       6.696142
 3414   A          6.696142       6.696142
 3415   A          6.699615       6.699615
 3416   A          6.699615       6.699615
 3417   A          6.699615       6.699615
 3418   A          6.710687       6.710687
 3419   A          6.710688       6.710688
 3420   A          6.710688       6.710688
 3421   A          6.714545       6.714545
 3422   A          6.714545       6.714545
 3423   A          6.714546       6.714546
 3424   A          6.722614       6.722614
 3425   A          6.722614       6.722614
 3426   A          6.730400       6.730400
 3427   A          6.730400       6.730400
 3428   A          6.731145       6.731145
 3429   A          6.731145       6.731145
 3430   A          6.731145       6.731145
 3431   A          6.740340       6.740340
 3432   A          6.740340       6.740340
 3433   A          6.740340       6.740340
 3434   A          6.741180       6.741180
 3435   A          6.741180       6.741180
 3436   A          6.741181       6.741181
 3437   A          6.749553       6.749553
 3438   A          6.749553       6.749553
 3439   A          6.749553       6.749553
 3440   A          6.751317       6.751317
 3441   A          6.751317       6.751317
 3442   A          6.769698       6.769698
 3443   A          6.774637       6.774637
 3444   A          6.781026       6.781026
 3445   A          6.781026       6.781026
 3446   A          6.781026       6.781026
 3447   A          6.787557       6.787557
 3448   A          6.787558       6.787558
 3449   A          6.787558       6.787558
 3450   A          6.792512       6.792512
 3451   A          6.792512       6.792512
 3452   A          6.792512       6.792512
 3453   A          6.820824       6.820824
 3454   A          6.826249       6.826249
 3455   A          6.826249       6.826249
 3456   A          6.826249       6.826249
 3457   A          6.827333       6.827333
 3458   A          6.827333       6.827333
 3459   A          6.827333       6.827333
 3460   A          6.842798       6.842798
 3461   A          6.842798       6.842798
 3462   A          6.842798       6.842798
 3463   A          6.850696       6.850696
 3464   A          6.850696       6.850696
 3465   A          6.850696       6.850696
 3466   A          6.864461       6.864461
 3467   A          6.864461       6.864461
 3468   A          6.869470       6.869470
 3469   A          6.869470       6.869470
 3470   A          6.869470       6.869470
 3471   A          6.910570       6.910570
 3472   A          6.910570       6.910570
 3473   A          6.910570       6.910570
 3474   A          6.923052       6.923052
 3475   A          6.923052       6.923052
 3476   A          6.937674       6.937674
 3477   A          6.939550       6.939550
 3478   A          6.939550       6.939550
 3479   A          6.939550       6.939550
 3480   A          6.941809       6.941809
 3481   A          6.948840       6.948840
 3482   A          6.948840       6.948840
 3483   A          6.948840       6.948840
 3484   A          6.956470       6.956470
 3485   A          6.956470       6.956470
 3486   A          6.956470       6.956470
 3487   A          6.956722       6.956722
 3488   A          6.956722       6.956722
 3489   A          6.956722       6.956722
 3490   A          6.971007       6.971007
 3491   A          6.971008       6.971008
 3492   A          6.981013       6.981013
 3493   A          6.981013       6.981013
 3494   A          6.981013       6.981013
 3495   A          6.985861       6.985861
 3496   A          6.985861       6.985861
 3497   A          6.989292       6.989292
 3498   A          6.989292       6.989292
 3499   A          6.989292       6.989292
 3500   A          6.991158       6.991158
 3501   A          6.991158       6.991158
 3502   A          6.991158       6.991158
 3503   A          7.003186       7.003186
 3504   A          7.003186       7.003186
 3505   A          7.003187       7.003187
 3506   A          7.021593       7.021593
 3507   A          7.021593       7.021593
 3508   A          7.021593       7.021593
 3509   A          7.026064       7.026064
 3510   A          7.026064       7.026064
 3511   A          7.029463       7.029463
 3512   A          7.046769       7.046769
 3513   A          7.046769       7.046769
 3514   A          7.046769       7.046769
 3515   A          7.057444       7.057444
 3516   A          7.057444       7.057444
 3517   A          7.060324       7.060324
 3518   A          7.060324       7.060324
 3519   A          7.060324       7.060324
 3520   A          7.074321       7.074321
 3521   A          7.107199       7.107199
 3522   A          7.107199       7.107199
 3523   A          7.107199       7.107199
 3524   A          7.110526       7.110526
 3525   A          7.118324       7.118324
 3526   A          7.118324       7.118324
 3527   A          7.118324       7.118324
 3528   A          7.119406       7.119406
 3529   A          7.119406       7.119406
 3530   A          7.119406       7.119406
 3531   A          7.148863       7.148863
 3532   A          7.148863       7.148863
 3533   A          7.158694       7.158694
 3534   A          7.158695       7.158695
 3535   A          7.158695       7.158695
 3536   A          7.164975       7.164975
 3537   A          7.164975       7.164975
 3538   A          7.164975       7.164975
 3539   A          7.206484       7.206484
 3540   A          7.206485       7.206485
 3541   A          7.214854       7.214854
 3542   A          7.214854       7.214854
 3543   A          7.214855       7.214855
 3544   A          7.216311       7.216311
 3545   A          7.216311       7.216311
 3546   A          7.216311       7.216311
 3547   A          7.221168       7.221168
 3548   A          7.223468       7.223468
 3549   A          7.223468       7.223468
 3550   A          7.223468       7.223468
 3551   A          7.229125       7.229125
 3552   A          7.229125       7.229125
 3553   A          7.251392       7.251392
 3554   A          7.259876       7.259876
 3555   A          7.259876       7.259876
 3556   A          7.259876       7.259876
 3557   A          7.300522       7.300522
 3558   A          7.300522       7.300522
 3559   A          7.320050       7.320050
 3560   A          7.335185       7.335185
 3561   A          7.335185       7.335185
 3562   A          7.335185       7.335185
 3563   A          7.337469       7.337469
 3564   A          7.337470       7.337470
 3565   A          7.391805       7.391805
 3566   A          7.391805       7.391805
 3567   A          7.391805       7.391805
 3568   A          7.395726       7.395726
 3569   A          7.395726       7.395726
 3570   A          7.395727       7.395727
 3571   A          7.519193       7.519193
 3572   A          7.521868       7.521868
 3573   A          7.579632       7.579632
 3574   A          7.579632       7.579632
 3575   A          7.579632       7.579632
 3576   A          7.609825       7.609825
 3577   A          7.609825       7.609825
 3578   A          7.609825       7.609825
 3579   A          7.842755       7.842755
 3580   A          7.842756       7.842756
 3581   A          7.998207       7.998207
 3582   A          7.998208       7.998208
 3583   A          7.998208       7.998208
 3584   A          8.288017       8.288017
 3585   A         43.134347      43.134347
 3586   A         43.228261      43.228261
 3587   A         43.228261      43.228261
 3588   A         43.229799      43.229799
 3589   A         43.229800      43.229800
 3590   A         43.229800      43.229800
 3591   A         43.251797      43.251797
 3592   A         43.251797      43.251797
 3593   A         43.251797      43.251797
 3594   A         43.307098      43.307098
 3595   A         43.307098      43.307098
 3596   A         43.307098      43.307098
 3597   A         43.308956      43.308956
 3598   A         43.309607      43.309607
 3599   A         43.309607      43.309607
 3600   A         43.309607      43.309607
 3601   A         43.336428      43.336428
 3602   A         43.336429      43.336429
 3603   A         43.336431      43.336431
 3604   A         43.342748      43.342748
 3605   A         43.342749      43.342749
 3606   A         43.343499      43.343499
 3607   A         43.343501      43.343501
 3608   A         43.343503      43.343503
 3609   A         43.366154      43.366154
 3610   A         43.366154      43.366154
 3611   A         43.366154      43.366154
 3612   A         43.427794      43.427794
 3613   A         43.427794      43.427794
 3614   A         43.427794      43.427794
 3615   A         43.474707      43.474707
 3616   A         43.474710      43.474710
 3617   A         43.474711      43.474711
 3618   A         43.475467      43.475467
 3619   A         43.494561      43.494561
 3620   A         43.494562      43.494562
 3621   A         43.512134      43.512134
 3622   A         43.526701      43.526701
 3623   A         43.554660      43.554660
 3624   A         43.554663      43.554663
 3625   A         43.554666      43.554666
 3626   A         43.576043      43.576043
 3627   A         43.576045      43.576045
 3628   A         43.576046      43.576046
 3629   A         43.583039      43.583039
 3630   A         43.583040      43.583040
 3631   A         43.630789      43.630789
 3632   A         43.630789      43.630789
 3633   A         43.630792      43.630792
 3634   A         43.638085      43.638085
 3635   A         43.638086      43.638086
 3636   A         43.638088      43.638088
 3637   A         43.640858      43.640858
 3638   A         43.640860      43.640860
 3639   A         43.640863      43.640863
 3640   A         43.723088      43.723088
 3641   A         43.723089      43.723089
 3642   A         43.724832      43.724832
 3643   A         43.724834      43.724834
 3644   A         43.724836      43.724836
 3645   A         43.924074      43.924074
 3646   A         44.015954      44.015954
 3647   A         44.015962      44.015962
 3648   A         44.015964      44.015964
 3649   A         44.088214      44.088214
 3650   A         44.088217      44.088217
 3651   A         44.121586      44.121586
 3652   A         44.121588      44.121588
 3653   A         44.121589      44.121589
 3654   A         44.169510      44.169510
 3655   A         44.169513      44.169513
 3656   A         44.169515      44.169515
 3657   A         44.335318      44.335318
 3658   A         44.335319      44.335319
 3659   A         44.335325      44.335325
 3660   A         44.390013      44.390013
 3661   A         44.419932      44.419932
 3662   A         44.461243      44.461243
 3663   A         44.461249      44.461249
 
 RETURNING FROM SCF ALGORITHM
 ======================================================================
 
 ************************ 2021-11-19 04:20:49 *************************
                      Normal termination of mrcc.
 **********************************************************************
