 **********************************************************************
                          MRCC program system
 **********************************************************************
 
                              Written by
 Mihaly Kallay, Peter R. Nagy, David Mester, Zoltan Rolik, Gyula Samu,
   Jozsef Csontos, Jozsef Csoka, P. Bernat Szabo, Laszlo Gyevi-Nagy,
    Bence Hegely, Istvan Ladjanszki, Lorant Szegedy, Bence Ladoczki,
       Klara Petrov, Mate Farkas, Pal D. Mezei, and Adam Ganyecz
 
        Department of Physical Chemistry and Materials Science
            Budapest University of Technology and Economics
                  Budapest P.O.Box 91, H-1521 Hungary
 
                              www.mrcc.hu
 
                    Release date: February 22, 2020

 ************************ 2021-11-07 15:30:47 *************************
 Executing minp...

 Reading input from MINP...
 
 Input file:
 
calc=LNO-CCSD(T)
scftype=rhf
verbosity=3
mem=470GB
symm=off
unit=angs
scfiguess=small
scfmaxit=1000
scfalg=locfit1

lcorthr=Loose
ccmaxit=400
usedisk=0
ccsdalg=dfdirect
ccsdthreads=4
ccsdmkl=thr
ptthreads=4

charge=-18
core=38

basis=special
bse_AVDZ
bse_CVDZ
bse_CVDZ
bse_CVDZ
bse_CVDZ
bse_CVDZ
bse_AVDZ
bse_AVDZ
bse_AVDZ
bse_AVDZ
bse_AVDZ
bse_AVDZ
bse_AVDZ
bse_AVDZ
bse_AVDZ
bse_AVDZ
bse_AVDZ
bse_AVDZ
bse_AVDZ
nothing
nothing
nothing
nothing
nothing
nothing
nothing
nothing
nothing
nothing
nothing
nothing
nothing
nothing
nothing
nothing
nothing
nothing
nothing
nothing
nothing
nothing
nothing
nothing
nothing
nothing
nothing
nothing
nothing
nothing
nothing
nothing
nothing
nothing
nothing
nothing
nothing
nothing
nothing
nothing
nothing
nothing
nothing
nothing
nothing
nothing
nothing
nothing
nothing
nothing
nothing
nothing
nothing
nothing
nothing
nothing
nothing
nothing
nothing
nothing
nothing
nothing
nothing
nothing
nothing
nothing
nothing
nothing
nothing
nothing
nothing
nothing
nothing
nothing
nothing
nothing
nothing
nothing
nothing
nothing
nothing
nothing
nothing
nothing
nothing
nothing
nothing
nothing
nothing
nothing
nothing
nothing
nothing
nothing
nothing
nothing
nothing
nothing
nothing
nothing
nothing
nothing
nothing
nothing
nothing
nothing
nothing
nothing
nothing
nothing
nothing
nothing
nothing
nothing
nothing
nothing
nothing
nothing
nothing
nothing
nothing
nothing
nothing
nothing
nothing
nothing
nothing
nothing
nothing
nothing
nothing
nothing
nothing
nothing
nothing
nothing
nothing
nothing
nothing
nothing
nothing
nothing
nothing
nothing
nothing
nothing

basis_sm=special
STO-3G
STO-3G
STO-3G
STO-3G
STO-3G
STO-3G
STO-3G
STO-3G
STO-3G
STO-3G
STO-3G
STO-3G
STO-3G
STO-3G
STO-3G
STO-3G
STO-3G
STO-3G
STO-3G
nothing
nothing
nothing
nothing
nothing
nothing
nothing
nothing
nothing
nothing
nothing
nothing
nothing
nothing
nothing
nothing
nothing
nothing
nothing
nothing
nothing
nothing
nothing
nothing
nothing
nothing
nothing
nothing
nothing
nothing
nothing
nothing
nothing
nothing
nothing
nothing
nothing
nothing
nothing
nothing
nothing
nothing
nothing
nothing
nothing
nothing
nothing
nothing
nothing
nothing
nothing
nothing
nothing
nothing
nothing
nothing
nothing
nothing
nothing
nothing
nothing
nothing
nothing
nothing
nothing
nothing
nothing
nothing
nothing
nothing
nothing
nothing
nothing
nothing
nothing
nothing
nothing
nothing
nothing
nothing
nothing
nothing
nothing
nothing
nothing
nothing
nothing
nothing
nothing
nothing
nothing
nothing
nothing
nothing
nothing
nothing
nothing
nothing
nothing
nothing
nothing
nothing
nothing
nothing
nothing
nothing
nothing
nothing
nothing
nothing
nothing
nothing
nothing
nothing
nothing
nothing
nothing
nothing
nothing
nothing
nothing
nothing
nothing
nothing
nothing
nothing
nothing
nothing
nothing
nothing
nothing
nothing
nothing
nothing
nothing
nothing
nothing
nothing
nothing
nothing
nothing
nothing
nothing
nothing
nothing
nothing

dfbasis_scf=special
bse_AVDZ_autoaux
bse_CVDZ_autoaux
bse_CVDZ_autoaux
bse_CVDZ_autoaux
bse_CVDZ_autoaux
bse_CVDZ_autoaux
bse_AVDZ_autoaux
bse_AVDZ_autoaux
bse_AVDZ_autoaux
bse_AVDZ_autoaux
bse_AVDZ_autoaux
bse_AVDZ_autoaux
bse_AVDZ_autoaux
bse_AVDZ_autoaux
bse_AVDZ_autoaux
bse_AVDZ_autoaux
bse_AVDZ_autoaux
bse_AVDZ_autoaux
bse_AVDZ_autoaux
nothing
nothing
nothing
nothing
nothing
nothing
nothing
nothing
nothing
nothing
nothing
nothing
nothing
nothing
nothing
nothing
nothing
nothing
nothing
nothing
nothing
nothing
nothing
nothing
nothing
nothing
nothing
nothing
nothing
nothing
nothing
nothing
nothing
nothing
nothing
nothing
nothing
nothing
nothing
nothing
nothing
nothing
nothing
nothing
nothing
nothing
nothing
nothing
nothing
nothing
nothing
nothing
nothing
nothing
nothing
nothing
nothing
nothing
nothing
nothing
nothing
nothing
nothing
nothing
nothing
nothing
nothing
nothing
nothing
nothing
nothing
nothing
nothing
nothing
nothing
nothing
nothing
nothing
nothing
nothing
nothing
nothing
nothing
nothing
nothing
nothing
nothing
nothing
nothing
nothing
nothing
nothing
nothing
nothing
nothing
nothing
nothing
nothing
nothing
nothing
nothing
nothing
nothing
nothing
nothing
nothing
nothing
nothing
nothing
nothing
nothing
nothing
nothing
nothing
nothing
nothing
nothing
nothing
nothing
nothing
nothing
nothing
nothing
nothing
nothing
nothing
nothing
nothing
nothing
nothing
nothing
nothing
nothing
nothing
nothing
nothing
nothing
nothing
nothing
nothing
nothing
nothing
nothing
nothing
nothing
nothing

dfbasis_cor=special
bse_AVDZ_autoaux
bse_CVDZ_autoaux
bse_CVDZ_autoaux
bse_CVDZ_autoaux
bse_CVDZ_autoaux
bse_CVDZ_autoaux
bse_AVDZ_autoaux
bse_AVDZ_autoaux
bse_AVDZ_autoaux
bse_AVDZ_autoaux
bse_AVDZ_autoaux
bse_AVDZ_autoaux
bse_AVDZ_autoaux
bse_AVDZ_autoaux
bse_AVDZ_autoaux
bse_AVDZ_autoaux
bse_AVDZ_autoaux
bse_AVDZ_autoaux
bse_AVDZ_autoaux
nothing
nothing
nothing
nothing
nothing
nothing
nothing
nothing
nothing
nothing
nothing
nothing
nothing
nothing
nothing
nothing
nothing
nothing
nothing
nothing
nothing
nothing
nothing
nothing
nothing
nothing
nothing
nothing
nothing
nothing
nothing
nothing
nothing
nothing
nothing
nothing
nothing
nothing
nothing
nothing
nothing
nothing
nothing
nothing
nothing
nothing
nothing
nothing
nothing
nothing
nothing
nothing
nothing
nothing
nothing
nothing
nothing
nothing
nothing
nothing
nothing
nothing
nothing
nothing
nothing
nothing
nothing
nothing
nothing
nothing
nothing
nothing
nothing
nothing
nothing
nothing
nothing
nothing
nothing
nothing
nothing
nothing
nothing
nothing
nothing
nothing
nothing
nothing
nothing
nothing
nothing
nothing
nothing
nothing
nothing
nothing
nothing
nothing
nothing
nothing
nothing
nothing
nothing
nothing
nothing
nothing
nothing
nothing
nothing
nothing
nothing
nothing
nothing
nothing
nothing
nothing
nothing
nothing
nothing
nothing
nothing
nothing
nothing
nothing
nothing
nothing
nothing
nothing
nothing
nothing
nothing
nothing
nothing
nothing
nothing
nothing
nothing
nothing
nothing
nothing
nothing
nothing
nothing
nothing
nothing
nothing

ecp=special
none
none
none
none
none
none
none
none
none
none
none
none
none
none
none
none
none
none
none
ECP-12
ECP-12
ECP-12
ECP-12
ECP-12
ECP-12
ECP-12
ECP-12
ECP-12
ECP-12
ECP-12
ECP-12
ECP-12
ECP-12
ECP-12
ECP-12
ECP-12
ECP-12
ECP-12
ECP-12
ECP-12
ECP-12
ECP-12
ECP-12
ECP-12
ECP-12
ECP-12
ECP-12
ECP-12
ECP-12
ECP-12
ECP-12
ECP-12
ECP-12
ECP-12
ECP-12
ECP-12
ECP-12
ECP-12
ECP-12
ECP-12
ECP-12
ECP-12
ECP-12
ECP-12
ECP-12
ECP-12
ECP-12
ECP-12
ECP-12
ECP-12
ECP-12
ECP-12
ECP-12
ECP-12
ECP-12
ECP-12
ECP-12
ECP-12
ECP-12
ECP-12
ECP-12
ECP-12
ECP-12
ECP-12
ECP-12
ECP-12
ECP-12
ECP-12
ECP-12
ECP-12
ECP-12
ECP-12
ECP-12
ECP-12
ECP-12
ECP-12
ECP-12
ECP-12
ECP-12
ECP-12
ECP-12
ECP-12
ECP-12
ECP-12
ECP-12
ECP-12
ECP-12
ECP-12
ECP-12
ECP-12
ECP-12
ECP-12
ECP-12
ECP-12
ECP-12
ECP-12
ECP-12
ECP-12
ECP-12
ECP-12
ECP-12
ECP-12
ECP-12
ECP-12
ECP-12
ECP-12
ECP-12
ECP-12
ECP-12
ECP-12
ECP-12
ECP-12
ECP-12
ECP-12
ECP-12
ECP-12
ECP-12
ECP-12
ECP-12
ECP-12
ECP-12
ECP-12
ECP-12
ECP-12
ECP-12
ECP-12
ECP-12
ECP-12
ECP-12
ECP-12
ECP-12
ECP-12
ECP-12
ECP-12
ECP-12
ECP-12
ECP-12
ECP-12
ECP-12
ECP-12
ECP-12
ECP-12
ECP-12
ECP-12
ECP-12

unit=angs
geom=xyz
165
Mg5O14ECP146
O     0.00000000000    0.00000000000    0.00000000000
Mg   -2.10322620878    0.00000373010   -0.04129472389
Mg   -0.00000077520    2.10323371923   -0.04127288263
Mg    2.10323191950    0.00000373010   -0.04129472389
Mg   -0.00000077520   -2.10322440905   -0.04127288263
Mg    0.00000550943    0.00000833428   -2.12731743682
O    -2.10322913797    2.10323249699   -0.00000184672
O     2.10322899032    2.10323249699   -0.00000184672
O     2.10322899032   -2.10322563130   -0.00000184672
O    -2.10322913797   -2.10322563130   -0.00000184672
O    -2.10322637832    0.00000013655   -2.13228003377
O     0.00000097398    2.10323217703   -2.13226748721
O     2.10323174996    0.00000013655   -2.13228003377
O     0.00000097398   -2.10322595126   -2.13226748721
O    -4.20645812828    0.00000000000    0.00000000000
O     0.00000000000    4.20645812828    0.00000000000
O     4.20645812828    0.00000000000    0.00000000000
O     0.00000000000   -4.20645812828    0.00000000000
O     0.00000732117    0.00000897147   -4.23909984007
Mg   -2.10322347462    2.10323704324   -2.12732261718
Mg    2.10323465367    2.10323704324   -2.12732261718
Mg    2.10323465367   -2.10322108505   -2.12732261718
Mg   -2.10322347462   -2.10322108505   -2.12732261718
Mg   -4.20645890349    2.10323371923   -0.04127288263
Mg   -2.10322620878    4.20646185838   -0.04129472389
Mg    2.10323191950    4.20646185838   -0.04129472389
Mg    4.20645735308    2.10323371923   -0.04127288263
Mg    4.20645735308   -2.10322440905   -0.04127288263
Mg    2.10323191950   -4.20645439819   -0.04129472389
Mg   -2.10322620878   -4.20645439819   -0.04129472389
Mg   -4.20645890349   -2.10322440905   -0.04127288263
Mg   -4.20645261886    0.00000833428   -2.12731743682
Mg    0.00000550943    4.20646646256   -2.12731743682
Mg    4.20646363771    0.00000833428   -2.12731743682
Mg    0.00000550943   -4.20644979401   -2.12731743682
Mg   -2.10322174297    0.00000897147   -4.23909984007
Mg    0.00000732117    2.10323803561   -4.23909984007
Mg    2.10323638531    0.00000897147   -4.23909984007
Mg    0.00000732117   -2.10322009268   -4.23909984007
Mg   -6.30968433707    0.00000373010   -0.04129472389
Mg   -0.00000077520    6.30969184751   -0.04127288263
Mg    6.30969004779    0.00000373010   -0.04129472389
Mg   -0.00000077520   -6.30968253734   -0.04127288263
Mg   -4.20645261886    4.20646646256   -2.12731743682
Mg    4.20646363771    4.20646646256   -2.12731743682
Mg    4.20646363771   -4.20644979401   -2.12731743682
Mg   -4.20645261886   -4.20644979401   -2.12731743682
Mg   -4.20645080711    2.10323803561   -4.23909984007
Mg   -2.10322174297    4.20646709975   -4.23909984007
Mg    2.10323638531    4.20646709975   -4.23909984007
Mg    4.20646544946    2.10323803561   -4.23909984007
Mg    4.20646544946   -2.10322009268   -4.23909984007
Mg    2.10323638531   -4.20644915682   -4.23909984007
Mg   -2.10322174297   -4.20644915682   -4.23909984007
Mg   -4.20645080711   -2.10322009268   -4.23909984007
Mg    0.00000732117    0.00000897147   -6.34232890421
Mg   -6.30968160290    2.10323704324   -2.12732261718
Mg   -2.10322347462    6.30969517152   -2.12732261718
Mg    2.10323465367    6.30969517152   -2.12732261718
Mg    6.30969278195    2.10323704324   -2.12732261718
Mg    6.30969278195   -2.10322108505   -2.12732261718
Mg    2.10323465367   -6.30967921333   -2.12732261718
Mg   -2.10322347462   -6.30967921333   -2.12732261718
Mg   -6.30968160290   -2.10322108505   -2.12732261718
Mg   -2.10322174297    2.10323803561   -6.34232890421
Mg    2.10323638531    2.10323803561   -6.34232890421
Mg    2.10323638531   -2.10322009268   -6.34232890421
Mg   -2.10322174297   -2.10322009268   -6.34232890421
Mg   -6.30968433707    4.20646185838   -0.04129472389
Mg   -4.20645890349    6.30969184751   -0.04127288263
Mg    4.20645735308    6.30969184751   -0.04127288263
Mg    6.30969004779    4.20646185838   -0.04129472389
Mg    6.30969004779   -4.20645439819   -0.04129472389
Mg    4.20645735308   -6.30968253734   -0.04127288263
Mg   -4.20645890349   -6.30968253734   -0.04127288263
Mg   -6.30968433707   -4.20645439819   -0.04129472389
Mg   -6.30967987125    0.00000897147   -4.23909984007
Mg    0.00000732117    6.30969616389   -4.23909984007
Mg    6.30969451360    0.00000897147   -4.23909984007
Mg    0.00000732117   -6.30967822096   -4.23909984007
Mg   -4.20645080711    0.00000897147   -6.34232890421
Mg    0.00000732117    4.20646709975   -6.34232890421
Mg    4.20646544946    0.00000897147   -6.34232890421
Mg    0.00000732117   -4.20644915682   -6.34232890421
Mg   -8.41291703177    2.10323371923   -0.04127288263
Mg   -2.10322620878    8.41291998667   -0.04129472389
Mg    2.10323191950    8.41291998667   -0.04129472389
Mg    8.41291548137    2.10323371923   -0.04127288263
Mg    8.41291548137   -2.10322440905   -0.04127288263
Mg    2.10323191950   -8.41291252647   -0.04129472389
Mg   -2.10322620878   -8.41291252647   -0.04129472389
Mg   -8.41291703177   -2.10322440905   -0.04127288263
Mg   -8.41291074714    0.00000833428   -2.12731743682
Mg    0.00000550943    8.41292459085   -2.12731743682
Mg    8.41292176600    0.00000833428   -2.12731743682
Mg    0.00000550943   -8.41290792229   -2.12731743682
Mg   -6.30967987125    4.20646709975   -4.23909984007
Mg   -4.20645080711    6.30969616389   -4.23909984007
Mg    4.20646544946    6.30969616389   -4.23909984007
Mg    6.30969451360    4.20646709975   -4.23909984007
Mg    6.30969451360   -4.20644915682   -4.23909984007
Mg    4.20646544946   -6.30967822096   -4.23909984007
Mg   -4.20645080711   -6.30967822096   -4.23909984007
Mg   -6.30967987125   -4.20644915682   -4.23909984007
Mg   -4.20645080711    4.20646709975   -6.34232890421
Mg    4.20646544946    4.20646709975   -6.34232890421
Mg    4.20646544946   -4.20644915682   -6.34232890421
Mg   -4.20645080711   -4.20644915682   -6.34232890421
Mg   -2.10322174297    0.00000897147   -8.44555796836
Mg    0.00000732117    2.10323803561   -8.44555796836
Mg    2.10323638531    0.00000897147   -8.44555796836
Mg    0.00000732117   -2.10322009268   -8.44555796836
Mg   -6.30968160290    6.30969517152   -2.12732261718
Mg    6.30969278195    6.30969517152   -2.12732261718
Mg    6.30969278195   -6.30967921333   -2.12732261718
Mg   -6.30968160290   -6.30967921333   -2.12732261718
Mg   -6.30967987125    2.10323803561   -6.34232890421
Mg   -2.10322174297    6.30969616389   -6.34232890421
Mg    2.10323638531    6.30969616389   -6.34232890421
Mg    6.30969451360    2.10323803561   -6.34232890421
Mg    6.30969451360   -2.10322009268   -6.34232890421
Mg    2.10323638531   -6.30967822096   -6.34232890421
Mg   -2.10322174297   -6.30967822096   -6.34232890421
Mg   -6.30967987125   -2.10322009268   -6.34232890421
Mg   -8.41291074714    4.20646646256   -2.12731743682
Mg   -4.20645261886    8.41292459085   -2.12731743682
Mg    4.20646363771    8.41292459085   -2.12731743682
Mg    8.41292176600    4.20646646256   -2.12731743682
Mg    8.41292176600   -4.20644979401   -2.12731743682
Mg    4.20646363771   -8.41290792229   -2.12731743682
Mg   -4.20645261886   -8.41290792229   -2.12731743682
Mg   -8.41291074714   -4.20644979401   -2.12731743682
Mg   -8.41290893540    2.10323803561   -4.23909984007
Mg   -2.10322174297    8.41292522803   -4.23909984007
Mg    2.10323638531    8.41292522803   -4.23909984007
Mg    8.41292357774    2.10323803561   -4.23909984007
Mg    8.41292357774   -2.10322009268   -4.23909984007
Mg    2.10323638531   -8.41290728510   -4.23909984007
Mg   -2.10322174297   -8.41290728510   -4.23909984007
Mg   -8.41290893540   -2.10322009268   -4.23909984007
Mg   -4.20645080711    2.10323803561   -8.44555796836
Mg   -2.10322174297    4.20646709975   -8.44555796836
Mg    2.10323638531    4.20646709975   -8.44555796836
Mg    4.20646544946    2.10323803561   -8.44555796836
Mg    4.20646544946   -2.10322009268   -8.44555796836
Mg    2.10323638531   -4.20644915682   -8.44555796836
Mg   -2.10322174297   -4.20644915682   -8.44555796836
Mg   -4.20645080711   -2.10322009268   -8.44555796836
Mg  -10.51614246535    0.00000373010   -0.04129472389
Mg   -0.00000077520   10.51614997580   -0.04127288263
Mg   10.51614817607    0.00000373010   -0.04129472389
Mg   -0.00000077520  -10.51614066562   -0.04127288263
Mg    0.00000732117    0.00000897147  -10.54878703250
Mg  -10.51613973119    2.10323704324   -2.12732261718
Mg   -2.10322347462   10.51615329981   -2.12732261718
Mg    2.10323465367   10.51615329981   -2.12732261718
Mg   10.51615091024    2.10323704324   -2.12732261718
Mg   10.51615091024   -2.10322108505   -2.12732261718
Mg    2.10323465367  -10.51613734162   -2.12732261718
Mg   -2.10322347462  -10.51613734162   -2.12732261718
Mg  -10.51613973119   -2.10322108505   -2.12732261718
Mg   -2.10322174297    2.10323803561  -10.54878703250
Mg    2.10323638531    2.10323803561  -10.54878703250
Mg    2.10323638531   -2.10322009268  -10.54878703250
Mg   -2.10322174297   -2.10322009268  -10.54878703250

ghost=serialno
1

qmmm=Amber
pointcharges
10070
     -2.10322347462    2.10323704324   -2.12732261718    2.00000000000
      2.10323465367    2.10323704324   -2.12732261718    2.00000000000
      2.10323465367   -2.10322108505   -2.12732261718    2.00000000000
     -2.10322347462   -2.10322108505   -2.12732261718    2.00000000000
     -4.20645890349    2.10323371923   -0.04127288263    2.00000000000
     -2.10322620878    4.20646185838   -0.04129472389    2.00000000000
      2.10323191950    4.20646185838   -0.04129472389    2.00000000000
      4.20645735308    2.10323371923   -0.04127288263    2.00000000000
      4.20645735308   -2.10322440905   -0.04127288263    2.00000000000
      2.10323191950   -4.20645439819   -0.04129472389    2.00000000000
     -2.10322620878   -4.20645439819   -0.04129472389    2.00000000000
     -4.20645890349   -2.10322440905   -0.04127288263    2.00000000000
     -4.20645261886    0.00000833428   -2.12731743682    2.00000000000
      0.00000550943    4.20646646256   -2.12731743682    2.00000000000
      4.20646363771    0.00000833428   -2.12731743682    2.00000000000
      0.00000550943   -4.20644979401   -2.12731743682    2.00000000000
     -2.10322174297    0.00000897147   -4.23909984007    2.00000000000
      0.00000732117    2.10323803561   -4.23909984007    2.00000000000
      2.10323638531    0.00000897147   -4.23909984007    2.00000000000
      0.00000732117   -2.10322009268   -4.23909984007    2.00000000000
     -4.20645715431    2.10323217703   -2.13226748721   -2.00000000000
     -2.10322637832    4.20645826484   -2.13228003377   -2.00000000000
      2.10323174996    4.20645826484   -2.13228003377   -2.00000000000
      4.20645910226    2.10323217703   -2.13226748721   -2.00000000000
      4.20645910226   -2.10322595126   -2.13226748721   -2.00000000000
      2.10323174996   -4.20645799173   -2.13228003377   -2.00000000000
     -2.10322637832   -4.20645799173   -2.13228003377   -2.00000000000
     -4.20645715431   -2.10322595126   -2.13226748721   -2.00000000000
     -2.10322174297    2.10323803561   -4.23909984007   -2.00000000000
      2.10323638531    2.10323803561   -4.23909984007   -2.00000000000
      2.10323638531   -2.10322009268   -4.23909984007   -2.00000000000
     -2.10322174297   -2.10322009268   -4.23909984007   -2.00000000000
     -4.20645812828    4.20645812828    0.00000000000   -2.00000000000
      4.20645812828    4.20645812828    0.00000000000   -2.00000000000
      4.20645812828   -4.20645812828    0.00000000000   -2.00000000000
     -4.20645812828   -4.20645812828    0.00000000000   -2.00000000000
     -4.20645080711    0.00000897147   -4.23909984007   -2.00000000000
      0.00000732117    4.20646709975   -4.23909984007   -2.00000000000
      4.20646544946    0.00000897147   -4.23909984007   -2.00000000000
      0.00000732117   -4.20644915682   -4.23909984007   -2.00000000000
     -6.30968433707    0.00000373010   -0.04129472389    2.00000000000
     -0.00000077520    6.30969184751   -0.04127288263    2.00000000000
      6.30969004779    0.00000373010   -0.04129472389    2.00000000000
     -0.00000077520   -6.30968253734   -0.04127288263    2.00000000000
     -4.20645261886    4.20646646256   -2.12731743682    2.00000000000
      4.20646363771    4.20646646256   -2.12731743682    2.00000000000
      4.20646363771   -4.20644979401   -2.12731743682    2.00000000000
     -4.20645261886   -4.20644979401   -2.12731743682    2.00000000000
     -4.20645080711    2.10323803561   -4.23909984007    2.00000000000
     -2.10322174297    4.20646709975   -4.23909984007    2.00000000000
      2.10323638531    4.20646709975   -4.23909984007    2.00000000000
      4.20646544946    2.10323803561   -4.23909984007    2.00000000000
      4.20646544946   -2.10322009268   -4.23909984007    2.00000000000
      2.10323638531   -4.20644915682   -4.23909984007    2.00000000000
     -2.10322174297   -4.20644915682   -4.23909984007    2.00000000000
     -4.20645080711   -2.10322009268   -4.23909984007    2.00000000000
      0.00000732117    0.00000897147   -6.34232890421    2.00000000000
     -6.30968726625    2.10323249699   -0.00000184672   -2.00000000000
     -2.10322913797    6.30969062527   -0.00000184672   -2.00000000000
      2.10322899032    6.30969062527   -0.00000184672   -2.00000000000
      6.30968711860    2.10323249699   -0.00000184672   -2.00000000000
      6.30968711860   -2.10322563130   -0.00000184672   -2.00000000000
      2.10322899032   -6.30968375958   -0.00000184672   -2.00000000000
     -2.10322913797   -6.30968375958   -0.00000184672   -2.00000000000
     -6.30968726625   -2.10322563130   -0.00000184672   -2.00000000000
     -6.30968450660    0.00000013655   -2.13228003377   -2.00000000000
      0.00000097398    6.30969030531   -2.13226748721   -2.00000000000
      6.30968987825    0.00000013655   -2.13228003377   -2.00000000000
      0.00000097398   -6.30968407954   -2.13226748721   -2.00000000000
     -2.10322174297    0.00000897147   -6.34232890421   -2.00000000000
      0.00000732117    2.10323803561   -6.34232890421   -2.00000000000
      2.10323638531    0.00000897147   -6.34232890421   -2.00000000000
      0.00000732117   -2.10322009268   -6.34232890421   -2.00000000000
     -6.30968160290    2.10323704324   -2.12732261718    2.00000000000
     -2.10322347462    6.30969517152   -2.12732261718    2.00000000000
      2.10323465367    6.30969517152   -2.12732261718    2.00000000000
      6.30969278195    2.10323704324   -2.12732261718    2.00000000000
      6.30969278195   -2.10322108505   -2.12732261718    2.00000000000
      2.10323465367   -6.30967921333   -2.12732261718    2.00000000000
     -2.10322347462   -6.30967921333   -2.12732261718    2.00000000000
     -6.30968160290   -2.10322108505   -2.12732261718    2.00000000000
     -2.10322174297    2.10323803561   -6.34232890421    2.00000000000
      2.10323638531    2.10323803561   -6.34232890421    2.00000000000
      2.10323638531   -2.10322009268   -6.34232890421    2.00000000000
     -2.10322174297   -2.10322009268   -6.34232890421    2.00000000000
     -4.20645080711    4.20646709975   -4.23909984007   -2.00000000000
      4.20646544946    4.20646709975   -4.23909984007   -2.00000000000
      4.20646544946   -4.20644915682   -4.23909984007   -2.00000000000
     -4.20645080711   -4.20644915682   -4.23909984007   -2.00000000000
     -6.30968433707    4.20646185838   -0.04129472389    2.00000000000
     -4.20645890349    6.30969184751   -0.04127288263    2.00000000000
      4.20645735308    6.30969184751   -0.04127288263    2.00000000000
      6.30969004779    4.20646185838   -0.04129472389    2.00000000000
      6.30969004779   -4.20645439819   -0.04129472389    2.00000000000
      4.20645735308   -6.30968253734   -0.04127288263    2.00000000000
     -4.20645890349   -6.30968253734   -0.04127288263    2.00000000000
     -6.30968433707   -4.20645439819   -0.04129472389    2.00000000000
     -6.30967987125    0.00000897147   -4.23909984007    2.00000000000
      0.00000732117    6.30969616389   -4.23909984007    2.00000000000
      6.30969451360    0.00000897147   -4.23909984007    2.00000000000
      0.00000732117   -6.30967822096   -4.23909984007    2.00000000000
     -4.20645080711    0.00000897147   -6.34232890421    2.00000000000
      0.00000732117    4.20646709975   -6.34232890421    2.00000000000
      4.20646544946    0.00000897147   -6.34232890421    2.00000000000
      0.00000732117   -4.20644915682   -6.34232890421    2.00000000000
     -6.30968450660    4.20645826484   -2.13228003377   -2.00000000000
     -4.20645715431    6.30969030531   -2.13226748721   -2.00000000000
      4.20645910226    6.30969030531   -2.13226748721   -2.00000000000
      6.30968987825    4.20645826484   -2.13228003377   -2.00000000000
      6.30968987825   -4.20645799173   -2.13228003377   -2.00000000000
      4.20645910226   -6.30968407954   -2.13226748721   -2.00000000000
     -4.20645715431   -6.30968407954   -2.13226748721   -2.00000000000
     -6.30968450660   -4.20645799173   -2.13228003377   -2.00000000000
     -6.30967987125    2.10323803561   -4.23909984007   -2.00000000000
     -2.10322174297    6.30969616389   -4.23909984007   -2.00000000000
      2.10323638531    6.30969616389   -4.23909984007   -2.00000000000
      6.30969451360    2.10323803561   -4.23909984007   -2.00000000000
      6.30969451360   -2.10322009268   -4.23909984007   -2.00000000000
      2.10323638531   -6.30967822096   -4.23909984007   -2.00000000000
     -2.10322174297   -6.30967822096   -4.23909984007   -2.00000000000
     -6.30967987125   -2.10322009268   -4.23909984007   -2.00000000000
     -4.20645080711    2.10323803561   -6.34232890421   -2.00000000000
     -2.10322174297    4.20646709975   -6.34232890421   -2.00000000000
      2.10323638531    4.20646709975   -6.34232890421   -2.00000000000
      4.20646544946    2.10323803561   -6.34232890421   -2.00000000000
      4.20646544946   -2.10322009268   -6.34232890421   -2.00000000000
      2.10323638531   -4.20644915682   -6.34232890421   -2.00000000000
     -2.10322174297   -4.20644915682   -6.34232890421   -2.00000000000
     -4.20645080711   -2.10322009268   -6.34232890421   -2.00000000000
     -8.41291625657    0.00000000000    0.00000000000   -2.00000000000
      0.00000000000    8.41291625657    0.00000000000   -2.00000000000
      8.41291625657    0.00000000000    0.00000000000   -2.00000000000
      0.00000000000   -8.41291625657    0.00000000000   -2.00000000000
      0.00000732117    0.00000897147   -8.44555796836   -2.00000000000
     -8.41291703177    2.10323371923   -0.04127288263    2.00000000000
     -2.10322620878    8.41291998667   -0.04129472389    2.00000000000
      2.10323191950    8.41291998667   -0.04129472389    2.00000000000
      8.41291548137    2.10323371923   -0.04127288263    2.00000000000
      8.41291548137   -2.10322440905   -0.04127288263    2.00000000000
      2.10323191950   -8.41291252647   -0.04129472389    2.00000000000
     -2.10322620878   -8.41291252647   -0.04129472389    2.00000000000
     -8.41291703177   -2.10322440905   -0.04127288263    2.00000000000
     -8.41291074714    0.00000833428   -2.12731743682    2.00000000000
      0.00000550943    8.41292459085   -2.12731743682    2.00000000000
      8.41292176600    0.00000833428   -2.12731743682    2.00000000000
      0.00000550943   -8.41290792229   -2.12731743682    2.00000000000
     -6.30967987125    4.20646709975   -4.23909984007    2.00000000000
     -4.20645080711    6.30969616389   -4.23909984007    2.00000000000
      4.20646544946    6.30969616389   -4.23909984007    2.00000000000
      6.30969451360    4.20646709975   -4.23909984007    2.00000000000
      6.30969451360   -4.20644915682   -4.23909984007    2.00000000000
      4.20646544946   -6.30967822096   -4.23909984007    2.00000000000
     -4.20645080711   -6.30967822096   -4.23909984007    2.00000000000
     -6.30967987125   -4.20644915682   -4.23909984007    2.00000000000
     -4.20645080711    4.20646709975   -6.34232890421    2.00000000000
      4.20646544946    4.20646709975   -6.34232890421    2.00000000000
      4.20646544946   -4.20644915682   -6.34232890421    2.00000000000
     -4.20645080711   -4.20644915682   -6.34232890421    2.00000000000
     -2.10322174297    0.00000897147   -8.44555796836    2.00000000000
      0.00000732117    2.10323803561   -8.44555796836    2.00000000000
      2.10323638531    0.00000897147   -8.44555796836    2.00000000000
      0.00000732117   -2.10322009268   -8.44555796836    2.00000000000
     -6.30968726625    6.30969062527   -0.00000184672   -2.00000000000
      6.30968711860    6.30969062527   -0.00000184672   -2.00000000000
      6.30968711860   -6.30968375958   -0.00000184672   -2.00000000000
     -6.30968726625   -6.30968375958   -0.00000184672   -2.00000000000
     -8.41291528259    2.10323217703   -2.13226748721   -2.00000000000
     -2.10322637832    8.41291639312   -2.13228003377   -2.00000000000
      2.10323174996    8.41291639312   -2.13228003377   -2.00000000000
      8.41291723054    2.10323217703   -2.13226748721   -2.00000000000
      8.41291723054   -2.10322595126   -2.13226748721   -2.00000000000
      2.10323174996   -8.41291612001   -2.13228003377   -2.00000000000
     -2.10322637832   -8.41291612001   -2.13228003377   -2.00000000000
     -8.41291528259   -2.10322595126   -2.13226748721   -2.00000000000
     -6.30967987125    0.00000897147   -6.34232890421   -2.00000000000
      0.00000732117    6.30969616389   -6.34232890421   -2.00000000000
      6.30969451360    0.00000897147   -6.34232890421   -2.00000000000
      0.00000732117   -6.30967822096   -6.34232890421   -2.00000000000
     -2.10322174297    2.10323803561   -8.44555796836   -2.00000000000
      2.10323638531    2.10323803561   -8.44555796836   -2.00000000000
      2.10323638531   -2.10322009268   -8.44555796836   -2.00000000000
     -2.10322174297   -2.10322009268   -8.44555796836   -2.00000000000
     -6.30968160290    6.30969517152   -2.12732261718    2.00000000000
      6.30969278195    6.30969517152   -2.12732261718    2.00000000000
      6.30969278195   -6.30967921333   -2.12732261718    2.00000000000
     -6.30968160290   -6.30967921333   -2.12732261718    2.00000000000
     -6.30967987125    2.10323803561   -6.34232890421    2.00000000000
     -2.10322174297    6.30969616389   -6.34232890421    2.00000000000
      2.10323638531    6.30969616389   -6.34232890421    2.00000000000
      6.30969451360    2.10323803561   -6.34232890421    2.00000000000
      6.30969451360   -2.10322009268   -6.34232890421    2.00000000000
      2.10323638531   -6.30967822096   -6.34232890421    2.00000000000
     -2.10322174297   -6.30967822096   -6.34232890421    2.00000000000
     -6.30967987125   -2.10322009268   -6.34232890421    2.00000000000
     -8.41291625657    4.20645812828    0.00000000000   -2.00000000000
     -4.20645812828    8.41291625657    0.00000000000   -2.00000000000
      4.20645812828    8.41291625657    0.00000000000   -2.00000000000
      8.41291625657    4.20645812828    0.00000000000   -2.00000000000
      8.41291625657   -4.20645812828    0.00000000000   -2.00000000000
      4.20645812828   -8.41291625657    0.00000000000   -2.00000000000
     -4.20645812828   -8.41291625657    0.00000000000   -2.00000000000
     -8.41291625657   -4.20645812828    0.00000000000   -2.00000000000
     -8.41290893540    0.00000897147   -4.23909984007   -2.00000000000
      0.00000732117    8.41292522803   -4.23909984007   -2.00000000000
      8.41292357774    0.00000897147   -4.23909984007   -2.00000000000
      0.00000732117   -8.41290728510   -4.23909984007   -2.00000000000
     -4.20645080711    0.00000897147   -8.44555796836   -2.00000000000
      0.00000732117    4.20646709975   -8.44555796836   -2.00000000000
      4.20646544946    0.00000897147   -8.44555796836   -2.00000000000
      0.00000732117   -4.20644915682   -8.44555796836   -2.00000000000
     -8.41291074714    4.20646646256   -2.12731743682    2.00000000000
     -4.20645261886    8.41292459085   -2.12731743682    2.00000000000
      4.20646363771    8.41292459085   -2.12731743682    2.00000000000
      8.41292176600    4.20646646256   -2.12731743682    2.00000000000
      8.41292176600   -4.20644979401   -2.12731743682    2.00000000000
      4.20646363771   -8.41290792229   -2.12731743682    2.00000000000
     -4.20645261886   -8.41290792229   -2.12731743682    2.00000000000
     -8.41291074714   -4.20644979401   -2.12731743682    2.00000000000
     -8.41290893540    2.10323803561   -4.23909984007    2.00000000000
     -2.10322174297    8.41292522803   -4.23909984007    2.00000000000
      2.10323638531    8.41292522803   -4.23909984007    2.00000000000
      8.41292357774    2.10323803561   -4.23909984007    2.00000000000
      8.41292357774   -2.10322009268   -4.23909984007    2.00000000000
      2.10323638531   -8.41290728510   -4.23909984007    2.00000000000
     -2.10322174297   -8.41290728510   -4.23909984007    2.00000000000
     -8.41290893540   -2.10322009268   -4.23909984007    2.00000000000
     -4.20645080711    2.10323803561   -8.44555796836    2.00000000000
     -2.10322174297    4.20646709975   -8.44555796836    2.00000000000
      2.10323638531    4.20646709975   -8.44555796836    2.00000000000
      4.20646544946    2.10323803561   -8.44555796836    2.00000000000
      4.20646544946   -2.10322009268   -8.44555796836    2.00000000000
      2.10323638531   -4.20644915682   -8.44555796836    2.00000000000
     -2.10322174297   -4.20644915682   -8.44555796836    2.00000000000
     -4.20645080711   -2.10322009268   -8.44555796836    2.00000000000
    -10.51614246535    0.00000373010   -0.04129472389    2.00000000000
     -0.00000077520   10.51614997580   -0.04127288263    2.00000000000
     10.51614817607    0.00000373010   -0.04129472389    2.00000000000
     -0.00000077520  -10.51614066562   -0.04127288263    2.00000000000
      0.00000732117    0.00000897147  -10.54878703250    2.00000000000
    -10.51614539454    2.10323249699   -0.00000184672   -2.00000000000
     -2.10322913797   10.51614875355   -0.00000184672   -2.00000000000
      2.10322899032   10.51614875355   -0.00000184672   -2.00000000000
     10.51614524688    2.10323249699   -0.00000184672   -2.00000000000
     10.51614524688   -2.10322563130   -0.00000184672   -2.00000000000
      2.10322899032  -10.51614188787   -0.00000184672   -2.00000000000
     -2.10322913797  -10.51614188787   -0.00000184672   -2.00000000000
    -10.51614539454   -2.10322563130   -0.00000184672   -2.00000000000
    -10.51614263489    0.00000013655   -2.13228003377   -2.00000000000
      0.00000097398   10.51614843360   -2.13226748721   -2.00000000000
     10.51614800653    0.00000013655   -2.13228003377   -2.00000000000
      0.00000097398  -10.51614220782   -2.13226748721   -2.00000000000
     -2.10322174297    0.00000897147  -10.54878703250   -2.00000000000
      0.00000732117    2.10323803561  -10.54878703250   -2.00000000000
      2.10323638531    0.00000897147  -10.54878703250   -2.00000000000
      0.00000732117   -2.10322009268  -10.54878703250   -2.00000000000
    -10.51613973119    2.10323704324   -2.12732261718    2.00000000000
     -2.10322347462   10.51615329981   -2.12732261718    2.00000000000
      2.10323465367   10.51615329981   -2.12732261718    2.00000000000
     10.51615091024    2.10323704324   -2.12732261718    2.00000000000
     10.51615091024   -2.10322108505   -2.12732261718    2.00000000000
      2.10323465367  -10.51613734162   -2.12732261718    2.00000000000
     -2.10322347462  -10.51613734162   -2.12732261718    2.00000000000
    -10.51613973119   -2.10322108505   -2.12732261718    2.00000000000
     -2.10322174297    2.10323803561  -10.54878703250    2.00000000000
      2.10323638531    2.10323803561  -10.54878703250    2.00000000000
      2.10323638531   -2.10322009268  -10.54878703250    2.00000000000
     -2.10322174297   -2.10322009268  -10.54878703250    2.00000000000
     -6.30967987125    6.30969616389   -4.23909984007   -2.00000000000
      6.30969451360    6.30969616389   -4.23909984007   -2.00000000000
      6.30969451360   -6.30967822096   -4.23909984007   -2.00000000000
     -6.30967987125   -6.30967822096   -4.23909984007   -2.00000000000
     -6.30967987125    4.20646709975   -6.34232890421   -2.00000000000
     -4.20645080711    6.30969616389   -6.34232890421   -2.00000000000
      4.20646544946    6.30969616389   -6.34232890421   -2.00000000000
      6.30969451360    4.20646709975   -6.34232890421   -2.00000000000
      6.30969451360   -4.20644915682   -6.34232890421   -2.00000000000
      4.20646544946   -6.30967822096   -6.34232890421   -2.00000000000
     -4.20645080711   -6.30967822096   -6.34232890421   -2.00000000000
     -6.30967987125   -4.20644915682   -6.34232890421   -2.00000000000
     -8.41290893540    4.20646709975   -4.23909984007   -2.00000000000
     -4.20645080711    8.41292522803   -4.23909984007   -2.00000000000
      4.20646544946    8.41292522803   -4.23909984007   -2.00000000000
      8.41292357774    4.20646709975   -4.23909984007   -2.00000000000
      8.41292357774   -4.20644915682   -4.23909984007   -2.00000000000
      4.20646544946   -8.41290728510   -4.23909984007   -2.00000000000
     -4.20645080711   -8.41290728510   -4.23909984007   -2.00000000000
     -8.41290893540   -4.20644915682   -4.23909984007   -2.00000000000
     -4.20645080711    4.20646709975   -8.44555796836   -2.00000000000
      4.20646544946    4.20646709975   -8.44555796836   -2.00000000000
      4.20646544946   -4.20644915682   -8.44555796836   -2.00000000000
     -4.20645080711   -4.20644915682   -8.44555796836   -2.00000000000
     -8.41291703177    6.30969184751   -0.04127288263    2.00000000000
     -6.30968433707    8.41291998667   -0.04129472389    2.00000000000
      6.30969004779    8.41291998667   -0.04129472389    2.00000000000
      8.41291548137    6.30969184751   -0.04127288263    2.00000000000
      8.41291548137   -6.30968253734   -0.04127288263    2.00000000000
      6.30969004779   -8.41291252647   -0.04129472389    2.00000000000
     -6.30968433707   -8.41291252647   -0.04129472389    2.00000000000
     -8.41291703177   -6.30968253734   -0.04127288263    2.00000000000
     -8.41290893540    0.00000897147   -6.34232890421    2.00000000000
      0.00000732117    8.41292522803   -6.34232890421    2.00000000000
      8.41292357774    0.00000897147   -6.34232890421    2.00000000000
      0.00000732117   -8.41290728510   -6.34232890421    2.00000000000
     -6.30967987125    0.00000897147   -8.44555796836    2.00000000000
      0.00000732117    6.30969616389   -8.44555796836    2.00000000000
      6.30969451360    0.00000897147   -8.44555796836    2.00000000000
      0.00000732117   -6.30967822096   -8.44555796836    2.00000000000
     -8.41291528259    6.30969030531   -2.13226748721   -2.00000000000
     -6.30968450660    8.41291639312   -2.13228003377   -2.00000000000
      6.30968987825    8.41291639312   -2.13228003377   -2.00000000000
      8.41291723054    6.30969030531   -2.13226748721   -2.00000000000
      8.41291723054   -6.30968407954   -2.13226748721   -2.00000000000
      6.30968987825   -8.41291612001   -2.13228003377   -2.00000000000
     -6.30968450660   -8.41291612001   -2.13228003377   -2.00000000000
     -8.41291528259   -6.30968407954   -2.13226748721   -2.00000000000
     -8.41290893540    2.10323803561   -6.34232890421   -2.00000000000
     -2.10322174297    8.41292522803   -6.34232890421   -2.00000000000
      2.10323638531    8.41292522803   -6.34232890421   -2.00000000000
      8.41292357774    2.10323803561   -6.34232890421   -2.00000000000
      8.41292357774   -2.10322009268   -6.34232890421   -2.00000000000
      2.10323638531   -8.41290728510   -6.34232890421   -2.00000000000
     -2.10322174297   -8.41290728510   -6.34232890421   -2.00000000000
     -8.41290893540   -2.10322009268   -6.34232890421   -2.00000000000
     -6.30967987125    2.10323803561   -8.44555796836   -2.00000000000
     -2.10322174297    6.30969616389   -8.44555796836   -2.00000000000
      2.10323638531    6.30969616389   -8.44555796836   -2.00000000000
      6.30969451360    2.10323803561   -8.44555796836   -2.00000000000
      6.30969451360   -2.10322009268   -8.44555796836   -2.00000000000
      2.10323638531   -6.30967822096   -8.44555796836   -2.00000000000
     -2.10322174297   -6.30967822096   -8.44555796836   -2.00000000000
     -6.30967987125   -2.10322009268   -8.44555796836   -2.00000000000
     -6.30967987125    6.30969616389   -6.34232890421    2.00000000000
      6.30969451360    6.30969616389   -6.34232890421    2.00000000000
      6.30969451360   -6.30967822096   -6.34232890421    2.00000000000
     -6.30967987125   -6.30967822096   -6.34232890421    2.00000000000
    -10.51614246535    4.20646185838   -0.04129472389    2.00000000000
     -4.20645890349   10.51614997580   -0.04127288263    2.00000000000
      4.20645735308   10.51614997580   -0.04127288263    2.00000000000
     10.51614817607    4.20646185838   -0.04129472389    2.00000000000
     10.51614817607   -4.20645439819   -0.04129472389    2.00000000000
      4.20645735308  -10.51614066562   -0.04127288263    2.00000000000
     -4.20645890349  -10.51614066562   -0.04127288263    2.00000000000
    -10.51614246535   -4.20645439819   -0.04129472389    2.00000000000
    -10.51613799954    0.00000897147   -4.23909984007    2.00000000000
     -8.41290893540    6.30969616389   -4.23909984007    2.00000000000
     -6.30967987125    8.41292522803   -4.23909984007    2.00000000000
      0.00000732117   10.51615429218   -4.23909984007    2.00000000000
      6.30969451360    8.41292522803   -4.23909984007    2.00000000000
      8.41292357774    6.30969616389   -4.23909984007    2.00000000000
     10.51615264188    0.00000897147   -4.23909984007    2.00000000000
      8.41292357774   -6.30967822096   -4.23909984007    2.00000000000
      6.30969451360   -8.41290728510   -4.23909984007    2.00000000000
      0.00000732117  -10.51613634924   -4.23909984007    2.00000000000
     -6.30967987125   -8.41290728510   -4.23909984007    2.00000000000
     -8.41290893540   -6.30967822096   -4.23909984007    2.00000000000
     -8.41290893540    4.20646709975   -6.34232890421    2.00000000000
     -4.20645080711    8.41292522803   -6.34232890421    2.00000000000
      4.20646544946    8.41292522803   -6.34232890421    2.00000000000
      8.41292357774    4.20646709975   -6.34232890421    2.00000000000
      8.41292357774   -4.20644915682   -6.34232890421    2.00000000000
      4.20646544946   -8.41290728510   -6.34232890421    2.00000000000
     -4.20645080711   -8.41290728510   -6.34232890421    2.00000000000
     -8.41290893540   -4.20644915682   -6.34232890421    2.00000000000
     -6.30967987125    4.20646709975   -8.44555796836    2.00000000000
     -4.20645080711    6.30969616389   -8.44555796836    2.00000000000
      4.20646544946    6.30969616389   -8.44555796836    2.00000000000
      6.30969451360    4.20646709975   -8.44555796836    2.00000000000
      6.30969451360   -4.20644915682   -8.44555796836    2.00000000000
      4.20646544946   -6.30967822096   -8.44555796836    2.00000000000
     -4.20645080711   -6.30967822096   -8.44555796836    2.00000000000
     -6.30967987125   -4.20644915682   -8.44555796836    2.00000000000
     -4.20645080711    0.00000897147  -10.54878703250    2.00000000000
      0.00000732117    4.20646709975  -10.54878703250    2.00000000000
      4.20646544946    0.00000897147  -10.54878703250    2.00000000000
      0.00000732117   -4.20644915682  -10.54878703250    2.00000000000
    -10.51614263489    4.20645826484   -2.13228003377   -2.00000000000
     -4.20645715431   10.51614843360   -2.13226748721   -2.00000000000
      4.20645910226   10.51614843360   -2.13226748721   -2.00000000000
     10.51614800653    4.20645826484   -2.13228003377   -2.00000000000
     10.51614800653   -4.20645799173   -2.13228003377   -2.00000000000
      4.20645910226  -10.51614220782   -2.13226748721   -2.00000000000
     -4.20645715431  -10.51614220782   -2.13226748721   -2.00000000000
    -10.51614263489   -4.20645799173   -2.13228003377   -2.00000000000
    -10.51613799954    2.10323803561   -4.23909984007   -2.00000000000
     -2.10322174297   10.51615429218   -4.23909984007   -2.00000000000
      2.10323638531   10.51615429218   -4.23909984007   -2.00000000000
     10.51615264188    2.10323803561   -4.23909984007   -2.00000000000
     10.51615264188   -2.10322009268   -4.23909984007   -2.00000000000
      2.10323638531  -10.51613634924   -4.23909984007   -2.00000000000
     -2.10322174297  -10.51613634924   -4.23909984007   -2.00000000000
    -10.51613799954   -2.10322009268   -4.23909984007   -2.00000000000
     -4.20645080711    2.10323803561  -10.54878703250   -2.00000000000
     -2.10322174297    4.20646709975  -10.54878703250   -2.00000000000
      2.10323638531    4.20646709975  -10.54878703250   -2.00000000000
      4.20646544946    2.10323803561  -10.54878703250   -2.00000000000
      4.20646544946   -2.10322009268  -10.54878703250   -2.00000000000
      2.10323638531   -4.20644915682  -10.54878703250   -2.00000000000
     -2.10322174297   -4.20644915682  -10.54878703250   -2.00000000000
     -4.20645080711   -2.10322009268  -10.54878703250   -2.00000000000
     -8.41291625657    8.41291625657    0.00000000000   -2.00000000000
      8.41291625657    8.41291625657    0.00000000000   -2.00000000000
      8.41291625657   -8.41291625657    0.00000000000   -2.00000000000
     -8.41291625657   -8.41291625657    0.00000000000   -2.00000000000
     -8.41290893540    0.00000897147   -8.44555796836   -2.00000000000
      0.00000732117    8.41292522803   -8.44555796836   -2.00000000000
      8.41292357774    0.00000897147   -8.44555796836   -2.00000000000
      0.00000732117   -8.41290728510   -8.44555796836   -2.00000000000
     -8.41291074714    8.41292459085   -2.12731743682    2.00000000000
      8.41292176600    8.41292459085   -2.12731743682    2.00000000000
      8.41292176600   -8.41290792229   -2.12731743682    2.00000000000
     -8.41291074714   -8.41290792229   -2.12731743682    2.00000000000
    -10.51613799954    4.20646709975   -4.23909984007    2.00000000000
     -4.20645080711   10.51615429218   -4.23909984007    2.00000000000
      4.20646544946   10.51615429218   -4.23909984007    2.00000000000
     10.51615264188    4.20646709975   -4.23909984007    2.00000000000
     10.51615264188   -4.20644915682   -4.23909984007    2.00000000000
      4.20646544946  -10.51613634924   -4.23909984007    2.00000000000
     -4.20645080711  -10.51613634924   -4.23909984007    2.00000000000
    -10.51613799954   -4.20644915682   -4.23909984007    2.00000000000
     -8.41290893540    2.10323803561   -8.44555796836    2.00000000000
     -2.10322174297    8.41292522803   -8.44555796836    2.00000000000
      2.10323638531    8.41292522803   -8.44555796836    2.00000000000
      8.41292357774    2.10323803561   -8.44555796836    2.00000000000
      8.41292357774   -2.10322009268   -8.44555796836    2.00000000000
      2.10323638531   -8.41290728510   -8.44555796836    2.00000000000
     -2.10322174297   -8.41290728510   -8.44555796836    2.00000000000
     -8.41290893540   -2.10322009268   -8.44555796836    2.00000000000
     -4.20645080711    4.20646709975  -10.54878703250    2.00000000000
      4.20646544946    4.20646709975  -10.54878703250    2.00000000000
      4.20646544946   -4.20644915682  -10.54878703250    2.00000000000
     -4.20645080711   -4.20644915682  -10.54878703250    2.00000000000
    -10.51614539454    6.30969062527   -0.00000184672   -2.00000000000
     -6.30968726625   10.51614875355   -0.00000184672   -2.00000000000
      6.30968711860   10.51614875355   -0.00000184672   -2.00000000000
     10.51614524688    6.30969062527   -0.00000184672   -2.00000000000
     10.51614524688   -6.30968375958   -0.00000184672   -2.00000000000
      6.30968711860  -10.51614188787   -0.00000184672   -2.00000000000
     -6.30968726625  -10.51614188787   -0.00000184672   -2.00000000000
    -10.51614539454   -6.30968375958   -0.00000184672   -2.00000000000
    -10.51613799954    0.00000897147   -6.34232890421   -2.00000000000
     -8.41290893540    6.30969616389   -6.34232890421   -2.00000000000
     -6.30967987125    8.41292522803   -6.34232890421   -2.00000000000
      0.00000732117   10.51615429218   -6.34232890421   -2.00000000000
      6.30969451360    8.41292522803   -6.34232890421   -2.00000000000
      8.41292357774    6.30969616389   -6.34232890421   -2.00000000000
     10.51615264188    0.00000897147   -6.34232890421   -2.00000000000
      8.41292357774   -6.30967822096   -6.34232890421   -2.00000000000
      6.30969451360   -8.41290728510   -6.34232890421   -2.00000000000
      0.00000732117  -10.51613634924   -6.34232890421   -2.00000000000
     -6.30967987125   -8.41290728510   -6.34232890421   -2.00000000000
     -8.41290893540   -6.30967822096   -6.34232890421   -2.00000000000
     -6.30967987125    6.30969616389   -8.44555796836   -2.00000000000
      6.30969451360    6.30969616389   -8.44555796836   -2.00000000000
      6.30969451360   -6.30967822096   -8.44555796836   -2.00000000000
     -6.30967987125   -6.30967822096   -8.44555796836   -2.00000000000
     -6.30967987125    0.00000897147  -10.54878703250   -2.00000000000
      0.00000732117    6.30969616389  -10.54878703250   -2.00000000000
      6.30969451360    0.00000897147  -10.54878703250   -2.00000000000
      0.00000732117   -6.30967822096  -10.54878703250   -2.00000000000
    -10.51613973119    6.30969517152   -2.12732261718    2.00000000000
     -6.30968160290   10.51615329981   -2.12732261718    2.00000000000
      6.30969278195   10.51615329981   -2.12732261718    2.00000000000
     10.51615091024    6.30969517152   -2.12732261718    2.00000000000
     10.51615091024   -6.30967921333   -2.12732261718    2.00000000000
      6.30969278195  -10.51613734162   -2.12732261718    2.00000000000
     -6.30968160290  -10.51613734162   -2.12732261718    2.00000000000
    -10.51613973119   -6.30967921333   -2.12732261718    2.00000000000
    -10.51613799954    2.10323803561   -6.34232890421    2.00000000000
     -2.10322174297   10.51615429218   -6.34232890421    2.00000000000
      2.10323638531   10.51615429218   -6.34232890421    2.00000000000
     10.51615264188    2.10323803561   -6.34232890421    2.00000000000
     10.51615264188   -2.10322009268   -6.34232890421    2.00000000000
      2.10323638531  -10.51613634924   -6.34232890421    2.00000000000
     -2.10322174297  -10.51613634924   -6.34232890421    2.00000000000
    -10.51613799954   -2.10322009268   -6.34232890421    2.00000000000
     -6.30967987125    2.10323803561  -10.54878703250    2.00000000000
     -2.10322174297    6.30969616389  -10.54878703250    2.00000000000
      2.10323638531    6.30969616389  -10.54878703250    2.00000000000
      6.30969451360    2.10323803561  -10.54878703250    2.00000000000
      6.30969451360   -2.10322009268  -10.54878703250    2.00000000000
      2.10323638531   -6.30967822096  -10.54878703250    2.00000000000
     -2.10322174297   -6.30967822096  -10.54878703250    2.00000000000
     -6.30967987125   -2.10322009268  -10.54878703250    2.00000000000
    -12.61937438485    0.00000000000    0.00000000000   -2.00000000000
      0.00000000000   12.61937438485    0.00000000000   -2.00000000000
     12.61937438485    0.00000000000    0.00000000000   -2.00000000000
      0.00000000000  -12.61937438485    0.00000000000   -2.00000000000
     -8.41290893540    8.41292522803   -4.23909984007   -2.00000000000
      8.41292357774    8.41292522803   -4.23909984007   -2.00000000000
      8.41292357774   -8.41290728510   -4.23909984007   -2.00000000000
     -8.41290893540   -8.41290728510   -4.23909984007   -2.00000000000
     -8.41290893540    4.20646709975   -8.44555796836   -2.00000000000
     -4.20645080711    8.41292522803   -8.44555796836   -2.00000000000
      4.20646544946    8.41292522803   -8.44555796836   -2.00000000000
      8.41292357774    4.20646709975   -8.44555796836   -2.00000000000
      8.41292357774   -4.20644915682   -8.44555796836   -2.00000000000
      4.20646544946   -8.41290728510   -8.44555796836   -2.00000000000
     -4.20645080711   -8.41290728510   -8.44555796836   -2.00000000000
     -8.41290893540   -4.20644915682   -8.44555796836   -2.00000000000
      0.00000732117    0.00000897147  -12.65201609664   -2.00000000000
    -12.61937516006    2.10323371923   -0.04127288263    2.00000000000
     -2.10322620878   12.61937811495   -0.04129472389    2.00000000000
      2.10323191950   12.61937811495   -0.04129472389    2.00000000000
     12.61937360965    2.10323371923   -0.04127288263    2.00000000000
     12.61937360965   -2.10322440905   -0.04127288263    2.00000000000
      2.10323191950  -12.61937065476   -0.04129472389    2.00000000000
     -2.10322620878  -12.61937065476   -0.04129472389    2.00000000000
    -12.61937516006   -2.10322440905   -0.04127288263    2.00000000000
    -12.61936887543    0.00000833428   -2.12731743682    2.00000000000
      0.00000550943   12.61938271913   -2.12731743682    2.00000000000
     12.61937989428    0.00000833428   -2.12731743682    2.00000000000
      0.00000550943  -12.61936605057   -2.12731743682    2.00000000000
     -2.10322174297    0.00000897147  -12.65201609664    2.00000000000
      0.00000732117    2.10323803561  -12.65201609664    2.00000000000
      2.10323638531    0.00000897147  -12.65201609664    2.00000000000
      0.00000732117   -2.10322009268  -12.65201609664    2.00000000000
    -12.61937341088    2.10323217703   -2.13226748721   -2.00000000000
     -2.10322637832   12.61937452141   -2.13228003377   -2.00000000000
      2.10323174996   12.61937452141   -2.13228003377   -2.00000000000
     12.61937535883    2.10323217703   -2.13226748721   -2.00000000000
     12.61937535883   -2.10322595126   -2.13226748721   -2.00000000000
      2.10323174996  -12.61937424830   -2.13228003377   -2.00000000000
     -2.10322637832  -12.61937424830   -2.13228003377   -2.00000000000
    -12.61937341088   -2.10322595126   -2.13226748721   -2.00000000000
    -10.51613799954    6.30969616389   -4.23909984007   -2.00000000000
     -6.30967987125   10.51615429218   -4.23909984007   -2.00000000000
      6.30969451360   10.51615429218   -4.23909984007   -2.00000000000
     10.51615264188    6.30969616389   -4.23909984007   -2.00000000000
     10.51615264188   -6.30967822096   -4.23909984007   -2.00000000000
      6.30969451360  -10.51613634924   -4.23909984007   -2.00000000000
     -6.30967987125  -10.51613634924   -4.23909984007   -2.00000000000
    -10.51613799954   -6.30967822096   -4.23909984007   -2.00000000000
    -10.51613799954    4.20646709975   -6.34232890421   -2.00000000000
     -4.20645080711   10.51615429218   -6.34232890421   -2.00000000000
      4.20646544946   10.51615429218   -6.34232890421   -2.00000000000
     10.51615264188    4.20646709975   -6.34232890421   -2.00000000000
     10.51615264188   -4.20644915682   -6.34232890421   -2.00000000000
      4.20646544946  -10.51613634924   -6.34232890421   -2.00000000000
     -4.20645080711  -10.51613634924   -6.34232890421   -2.00000000000
    -10.51613799954   -4.20644915682   -6.34232890421   -2.00000000000
     -6.30967987125    4.20646709975  -10.54878703250   -2.00000000000
     -4.20645080711    6.30969616389  -10.54878703250   -2.00000000000
      4.20646544946    6.30969616389  -10.54878703250   -2.00000000000
      6.30969451360    4.20646709975  -10.54878703250   -2.00000000000
      6.30969451360   -4.20644915682  -10.54878703250   -2.00000000000
      4.20646544946   -6.30967822096  -10.54878703250   -2.00000000000
     -4.20645080711   -6.30967822096  -10.54878703250   -2.00000000000
     -6.30967987125   -4.20644915682  -10.54878703250   -2.00000000000
     -2.10322174297    2.10323803561  -12.65201609664   -2.00000000000
      2.10323638531    2.10323803561  -12.65201609664   -2.00000000000
      2.10323638531   -2.10322009268  -12.65201609664   -2.00000000000
     -2.10322174297   -2.10322009268  -12.65201609664   -2.00000000000
    -12.61937438485    4.20645812828    0.00000000000   -2.00000000000
     -4.20645812828   12.61937438485    0.00000000000   -2.00000000000
      4.20645812828   12.61937438485    0.00000000000   -2.00000000000
     12.61937438485    4.20645812828    0.00000000000   -2.00000000000
     12.61937438485   -4.20645812828    0.00000000000   -2.00000000000
      4.20645812828  -12.61937438485    0.00000000000   -2.00000000000
     -4.20645812828  -12.61937438485    0.00000000000   -2.00000000000
    -12.61937438485   -4.20645812828    0.00000000000   -2.00000000000
    -12.61936706368    0.00000897147   -4.23909984007   -2.00000000000
      0.00000732117   12.61938335632   -4.23909984007   -2.00000000000
     12.61938170602    0.00000897147   -4.23909984007   -2.00000000000
      0.00000732117  -12.61936541339   -4.23909984007   -2.00000000000
     -4.20645080711    0.00000897147  -12.65201609664   -2.00000000000
      0.00000732117    4.20646709975  -12.65201609664   -2.00000000000
      4.20646544946    0.00000897147  -12.65201609664   -2.00000000000
      0.00000732117   -4.20644915682  -12.65201609664   -2.00000000000
    -10.51614246535    8.41291998667   -0.04129472389    2.00000000000
     -8.41291703177   10.51614997580   -0.04127288263    2.00000000000
      8.41291548137   10.51614997580   -0.04127288263    2.00000000000
     10.51614817607    8.41291998667   -0.04129472389    2.00000000000
     10.51614817607   -8.41291252647   -0.04129472389    2.00000000000
      8.41291548137  -10.51614066562   -0.04127288263    2.00000000000
     -8.41291703177  -10.51614066562   -0.04127288263    2.00000000000
    -10.51614246535   -8.41291252647   -0.04129472389    2.00000000000
    -12.61936887543    4.20646646256   -2.12731743682    2.00000000000
     -4.20645261886   12.61938271913   -2.12731743682    2.00000000000
      4.20646363771   12.61938271913   -2.12731743682    2.00000000000
     12.61937989428    4.20646646256   -2.12731743682    2.00000000000
     12.61937989428   -4.20644979401   -2.12731743682    2.00000000000
      4.20646363771  -12.61936605057   -2.12731743682    2.00000000000
     -4.20645261886  -12.61936605057   -2.12731743682    2.00000000000
    -12.61936887543   -4.20644979401   -2.12731743682    2.00000000000
    -12.61936706368    2.10323803561   -4.23909984007    2.00000000000
     -2.10322174297   12.61938335632   -4.23909984007    2.00000000000
      2.10323638531   12.61938335632   -4.23909984007    2.00000000000
     12.61938170602    2.10323803561   -4.23909984007    2.00000000000
     12.61938170602   -2.10322009268   -4.23909984007    2.00000000000
      2.10323638531  -12.61936541339   -4.23909984007    2.00000000000
     -2.10322174297  -12.61936541339   -4.23909984007    2.00000000000
    -12.61936706368   -2.10322009268   -4.23909984007    2.00000000000
     -8.41290893540    8.41292522803   -6.34232890421    2.00000000000
      8.41292357774    8.41292522803   -6.34232890421    2.00000000000
      8.41292357774   -8.41290728510   -6.34232890421    2.00000000000
     -8.41290893540   -8.41290728510   -6.34232890421    2.00000000000
    -10.51613799954    0.00000897147   -8.44555796836    2.00000000000
     -8.41290893540    6.30969616389   -8.44555796836    2.00000000000
     -6.30967987125    8.41292522803   -8.44555796836    2.00000000000
      0.00000732117   10.51615429218   -8.44555796836    2.00000000000
      6.30969451360    8.41292522803   -8.44555796836    2.00000000000
      8.41292357774    6.30969616389   -8.44555796836    2.00000000000
     10.51615264188    0.00000897147   -8.44555796836    2.00000000000
      8.41292357774   -6.30967822096   -8.44555796836    2.00000000000
      6.30969451360   -8.41290728510   -8.44555796836    2.00000000000
      0.00000732117  -10.51613634924   -8.44555796836    2.00000000000
     -6.30967987125   -8.41290728510   -8.44555796836    2.00000000000
     -8.41290893540   -6.30967822096   -8.44555796836    2.00000000000
     -8.41290893540    0.00000897147  -10.54878703250    2.00000000000
      0.00000732117    8.41292522803  -10.54878703250    2.00000000000
      8.41292357774    0.00000897147  -10.54878703250    2.00000000000
      0.00000732117   -8.41290728510  -10.54878703250    2.00000000000
     -4.20645080711    2.10323803561  -12.65201609664    2.00000000000
     -2.10322174297    4.20646709975  -12.65201609664    2.00000000000
      2.10323638531    4.20646709975  -12.65201609664    2.00000000000
      4.20646544946    2.10323803561  -12.65201609664    2.00000000000
      4.20646544946   -2.10322009268  -12.65201609664    2.00000000000
      2.10323638531   -4.20644915682  -12.65201609664    2.00000000000
     -2.10322174297   -4.20644915682  -12.65201609664    2.00000000000
     -4.20645080711   -2.10322009268  -12.65201609664    2.00000000000
    -10.51614263489    8.41291639312   -2.13228003377   -2.00000000000
     -8.41291528259   10.51614843360   -2.13226748721   -2.00000000000
      8.41291723054   10.51614843360   -2.13226748721   -2.00000000000
     10.51614800653    8.41291639312   -2.13228003377   -2.00000000000
     10.51614800653   -8.41291612001   -2.13228003377   -2.00000000000
      8.41291723054  -10.51614220782   -2.13226748721   -2.00000000000
     -8.41291528259  -10.51614220782   -2.13226748721   -2.00000000000
    -10.51614263489   -8.41291612001   -2.13228003377   -2.00000000000
    -10.51613799954    2.10323803561   -8.44555796836   -2.00000000000
     -2.10322174297   10.51615429218   -8.44555796836   -2.00000000000
      2.10323638531   10.51615429218   -8.44555796836   -2.00000000000
     10.51615264188    2.10323803561   -8.44555796836   -2.00000000000
     10.51615264188   -2.10322009268   -8.44555796836   -2.00000000000
      2.10323638531  -10.51613634924   -8.44555796836   -2.00000000000
     -2.10322174297  -10.51613634924   -8.44555796836   -2.00000000000
    -10.51613799954   -2.10322009268   -8.44555796836   -2.00000000000
     -8.41290893540    2.10323803561  -10.54878703250   -2.00000000000
     -2.10322174297    8.41292522803  -10.54878703250   -2.00000000000
      2.10323638531    8.41292522803  -10.54878703250   -2.00000000000
      8.41292357774    2.10323803561  -10.54878703250   -2.00000000000
      8.41292357774   -2.10322009268  -10.54878703250   -2.00000000000
      2.10323638531   -8.41290728510  -10.54878703250   -2.00000000000
     -2.10322174297   -8.41290728510  -10.54878703250   -2.00000000000
     -8.41290893540   -2.10322009268  -10.54878703250   -2.00000000000
    -10.51613799954    6.30969616389   -6.34232890421    2.00000000000
     -6.30967987125   10.51615429218   -6.34232890421    2.00000000000
      6.30969451360   10.51615429218   -6.34232890421    2.00000000000
     10.51615264188    6.30969616389   -6.34232890421    2.00000000000
     10.51615264188   -6.30967822096   -6.34232890421    2.00000000000
      6.30969451360  -10.51613634924   -6.34232890421    2.00000000000
     -6.30967987125  -10.51613634924   -6.34232890421    2.00000000000
    -10.51613799954   -6.30967822096   -6.34232890421    2.00000000000
     -6.30967987125    6.30969616389  -10.54878703250    2.00000000000
      6.30969451360    6.30969616389  -10.54878703250    2.00000000000
      6.30969451360   -6.30967822096  -10.54878703250    2.00000000000
     -6.30967987125   -6.30967822096  -10.54878703250    2.00000000000
    -12.61936706368    4.20646709975   -4.23909984007   -2.00000000000
     -4.20645080711   12.61938335632   -4.23909984007   -2.00000000000
      4.20646544946   12.61938335632   -4.23909984007   -2.00000000000
     12.61938170602    4.20646709975   -4.23909984007   -2.00000000000
     12.61938170602   -4.20644915682   -4.23909984007   -2.00000000000
      4.20646544946  -12.61936541339   -4.23909984007   -2.00000000000
     -4.20645080711  -12.61936541339   -4.23909984007   -2.00000000000
    -12.61936706368   -4.20644915682   -4.23909984007   -2.00000000000
     -4.20645080711    4.20646709975  -12.65201609664   -2.00000000000
      4.20646544946    4.20646709975  -12.65201609664   -2.00000000000
      4.20646544946   -4.20644915682  -12.65201609664   -2.00000000000
     -4.20645080711   -4.20644915682  -12.65201609664   -2.00000000000
    -12.61937516006    6.30969184751   -0.04127288263    2.00000000000
     -6.30968433707   12.61937811495   -0.04129472389    2.00000000000
      6.30969004779   12.61937811495   -0.04129472389    2.00000000000
     12.61937360965    6.30969184751   -0.04127288263    2.00000000000
     12.61937360965   -6.30968253734   -0.04127288263    2.00000000000
      6.30969004779  -12.61937065476   -0.04129472389    2.00000000000
     -6.30968433707  -12.61937065476   -0.04129472389    2.00000000000
    -12.61937516006   -6.30968253734   -0.04127288263    2.00000000000
    -10.51613799954    8.41292522803   -4.23909984007    2.00000000000
     -8.41290893540   10.51615429218   -4.23909984007    2.00000000000
      8.41292357774   10.51615429218   -4.23909984007    2.00000000000
     10.51615264188    8.41292522803   -4.23909984007    2.00000000000
     10.51615264188   -8.41290728510   -4.23909984007    2.00000000000
      8.41292357774  -10.51613634924   -4.23909984007    2.00000000000
     -8.41290893540  -10.51613634924   -4.23909984007    2.00000000000
    -10.51613799954   -8.41290728510   -4.23909984007    2.00000000000
    -12.61936706368    0.00000897147   -6.34232890421    2.00000000000
      0.00000732117   12.61938335632   -6.34232890421    2.00000000000
     12.61938170602    0.00000897147   -6.34232890421    2.00000000000
      0.00000732117  -12.61936541339   -6.34232890421    2.00000000000
    -10.51613799954    4.20646709975   -8.44555796836    2.00000000000
     -4.20645080711   10.51615429218   -8.44555796836    2.00000000000
      4.20646544946   10.51615429218   -8.44555796836    2.00000000000
     10.51615264188    4.20646709975   -8.44555796836    2.00000000000
     10.51615264188   -4.20644915682   -8.44555796836    2.00000000000
      4.20646544946  -10.51613634924   -8.44555796836    2.00000000000
     -4.20645080711  -10.51613634924   -8.44555796836    2.00000000000
    -10.51613799954   -4.20644915682   -8.44555796836    2.00000000000
     -8.41290893540    4.20646709975  -10.54878703250    2.00000000000
     -4.20645080711    8.41292522803  -10.54878703250    2.00000000000
      4.20646544946    8.41292522803  -10.54878703250    2.00000000000
      8.41292357774    4.20646709975  -10.54878703250    2.00000000000
      8.41292357774   -4.20644915682  -10.54878703250    2.00000000000
      4.20646544946   -8.41290728510  -10.54878703250    2.00000000000
     -4.20645080711   -8.41290728510  -10.54878703250    2.00000000000
     -8.41290893540   -4.20644915682  -10.54878703250    2.00000000000
     -6.30967987125    0.00000897147  -12.65201609664    2.00000000000
      0.00000732117    6.30969616389  -12.65201609664    2.00000000000
      6.30969451360    0.00000897147  -12.65201609664    2.00000000000
      0.00000732117   -6.30967822096  -12.65201609664    2.00000000000
    -12.61937341088    6.30969030531   -2.13226748721   -2.00000000000
     -6.30968450660   12.61937452141   -2.13228003377   -2.00000000000
      6.30968987825   12.61937452141   -2.13228003377   -2.00000000000
     12.61937535883    6.30969030531   -2.13226748721   -2.00000000000
     12.61937535883   -6.30968407954   -2.13226748721   -2.00000000000
      6.30968987825  -12.61937424830   -2.13228003377   -2.00000000000
     -6.30968450660  -12.61937424830   -2.13228003377   -2.00000000000
    -12.61937341088   -6.30968407954   -2.13226748721   -2.00000000000
    -12.61936706368    2.10323803561   -6.34232890421   -2.00000000000
     -2.10322174297   12.61938335632   -6.34232890421   -2.00000000000
      2.10323638531   12.61938335632   -6.34232890421   -2.00000000000
     12.61938170602    2.10323803561   -6.34232890421   -2.00000000000
     12.61938170602   -2.10322009268   -6.34232890421   -2.00000000000
      2.10323638531  -12.61936541339   -6.34232890421   -2.00000000000
     -2.10322174297  -12.61936541339   -6.34232890421   -2.00000000000
    -12.61936706368   -2.10322009268   -6.34232890421   -2.00000000000
     -6.30967987125    2.10323803561  -12.65201609664   -2.00000000000
     -2.10322174297    6.30969616389  -12.65201609664   -2.00000000000
      2.10323638531    6.30969616389  -12.65201609664   -2.00000000000
      6.30969451360    2.10323803561  -12.65201609664   -2.00000000000
      6.30969451360   -2.10322009268  -12.65201609664   -2.00000000000
      2.10323638531   -6.30967822096  -12.65201609664   -2.00000000000
     -2.10322174297   -6.30967822096  -12.65201609664   -2.00000000000
     -6.30967987125   -2.10322009268  -12.65201609664   -2.00000000000
     -8.41290893540    8.41292522803   -8.44555796836   -2.00000000000
      8.41292357774    8.41292522803   -8.44555796836   -2.00000000000
      8.41292357774   -8.41290728510   -8.44555796836   -2.00000000000
     -8.41290893540   -8.41290728510   -8.44555796836   -2.00000000000
    -14.72260059364    0.00000373010   -0.04129472389    2.00000000000
     -0.00000077520   14.72260810408   -0.04127288263    2.00000000000
     14.72260630435    0.00000373010   -0.04129472389    2.00000000000
     -0.00000077520  -14.72259879391   -0.04127288263    2.00000000000
    -12.61936706368    6.30969616389   -4.23909984007    2.00000000000
     -6.30967987125   12.61938335632   -4.23909984007    2.00000000000
      6.30969451360   12.61938335632   -4.23909984007    2.00000000000
     12.61938170602    6.30969616389   -4.23909984007    2.00000000000
     12.61938170602   -6.30967822096   -4.23909984007    2.00000000000
      6.30969451360  -12.61936541339   -4.23909984007    2.00000000000
     -6.30967987125  -12.61936541339   -4.23909984007    2.00000000000
    -12.61936706368   -6.30967822096   -4.23909984007    2.00000000000
    -12.61936706368    4.20646709975   -6.34232890421    2.00000000000
     -4.20645080711   12.61938335632   -6.34232890421    2.00000000000
      4.20646544946   12.61938335632   -6.34232890421    2.00000000000
     12.61938170602    4.20646709975   -6.34232890421    2.00000000000
     12.61938170602   -4.20644915682   -6.34232890421    2.00000000000
      4.20646544946  -12.61936541339   -6.34232890421    2.00000000000
     -4.20645080711  -12.61936541339   -6.34232890421    2.00000000000
    -12.61936706368   -4.20644915682   -6.34232890421    2.00000000000
     -6.30967987125    4.20646709975  -12.65201609664    2.00000000000
     -4.20645080711    6.30969616389  -12.65201609664    2.00000000000
      4.20646544946    6.30969616389  -12.65201609664    2.00000000000
      6.30969451360    4.20646709975  -12.65201609664    2.00000000000
      6.30969451360   -4.20644915682  -12.65201609664    2.00000000000
      4.20646544946   -6.30967822096  -12.65201609664    2.00000000000
     -4.20645080711   -6.30967822096  -12.65201609664    2.00000000000
     -6.30967987125   -4.20644915682  -12.65201609664    2.00000000000
      0.00000732117    0.00000897147  -14.75524516078    2.00000000000
    -14.72260352282    2.10323249699   -0.00000184672   -2.00000000000
    -10.51614539454   10.51614875355   -0.00000184672   -2.00000000000
     -2.10322913797   14.72260688184   -0.00000184672   -2.00000000000
      2.10322899032   14.72260688184   -0.00000184672   -2.00000000000
     10.51614524688   10.51614875355   -0.00000184672   -2.00000000000
     14.72260337517    2.10323249699   -0.00000184672   -2.00000000000
     14.72260337517   -2.10322563130   -0.00000184672   -2.00000000000
     10.51614524688  -10.51614188787   -0.00000184672   -2.00000000000
      2.10322899032  -14.72260001615   -0.00000184672   -2.00000000000
     -2.10322913797  -14.72260001615   -0.00000184672   -2.00000000000
    -10.51614539454  -10.51614188787   -0.00000184672   -2.00000000000
    -14.72260352282   -2.10322563130   -0.00000184672   -2.00000000000
    -14.72260076317    0.00000013655   -2.13228003377   -2.00000000000
      0.00000097398   14.72260656188   -2.13226748721   -2.00000000000
     14.72260613482    0.00000013655   -2.13228003377   -2.00000000000
      0.00000097398  -14.72260033611   -2.13226748721   -2.00000000000
    -10.51613799954    8.41292522803   -6.34232890421   -2.00000000000
     -8.41290893540   10.51615429218   -6.34232890421   -2.00000000000
      8.41292357774   10.51615429218   -6.34232890421   -2.00000000000
     10.51615264188    8.41292522803   -6.34232890421   -2.00000000000
     10.51615264188   -8.41290728510   -6.34232890421   -2.00000000000
      8.41292357774  -10.51613634924   -6.34232890421   -2.00000000000
     -8.41290893540  -10.51613634924   -6.34232890421   -2.00000000000
    -10.51613799954   -8.41290728510   -6.34232890421   -2.00000000000
    -10.51613799954    6.30969616389   -8.44555796836   -2.00000000000
     -6.30967987125   10.51615429218   -8.44555796836   -2.00000000000
      6.30969451360   10.51615429218   -8.44555796836   -2.00000000000
     10.51615264188    6.30969616389   -8.44555796836   -2.00000000000
     10.51615264188   -6.30967822096   -8.44555796836   -2.00000000000
      6.30969451360  -10.51613634924   -8.44555796836   -2.00000000000
     -6.30967987125  -10.51613634924   -8.44555796836   -2.00000000000
    -10.51613799954   -6.30967822096   -8.44555796836   -2.00000000000
    -10.51613799954    0.00000897147  -10.54878703250   -2.00000000000
     -8.41290893540    6.30969616389  -10.54878703250   -2.00000000000
     -6.30967987125    8.41292522803  -10.54878703250   -2.00000000000
      0.00000732117   10.51615429218  -10.54878703250   -2.00000000000
      6.30969451360    8.41292522803  -10.54878703250   -2.00000000000
      8.41292357774    6.30969616389  -10.54878703250   -2.00000000000
     10.51615264188    0.00000897147  -10.54878703250   -2.00000000000
      8.41292357774   -6.30967822096  -10.54878703250   -2.00000000000
      6.30969451360   -8.41290728510  -10.54878703250   -2.00000000000
      0.00000732117  -10.51613634924  -10.54878703250   -2.00000000000
     -6.30967987125   -8.41290728510  -10.54878703250   -2.00000000000
     -8.41290893540   -6.30967822096  -10.54878703250   -2.00000000000
     -2.10322174297    0.00000897147  -14.75524516078   -2.00000000000
      0.00000732117    2.10323803561  -14.75524516078   -2.00000000000
      2.10323638531    0.00000897147  -14.75524516078   -2.00000000000
      0.00000732117   -2.10322009268  -14.75524516078   -2.00000000000
    -14.72259785947    2.10323704324   -2.12732261718    2.00000000000
    -10.51613973119   10.51615329981   -2.12732261718    2.00000000000
     -2.10322347462   14.72261142809   -2.12732261718    2.00000000000
      2.10323465367   14.72261142809   -2.12732261718    2.00000000000
     10.51615091024   10.51615329981   -2.12732261718    2.00000000000
     14.72260903852    2.10323704324   -2.12732261718    2.00000000000
     14.72260903852   -2.10322108505   -2.12732261718    2.00000000000
     10.51615091024  -10.51613734162   -2.12732261718    2.00000000000
      2.10323465367  -14.72259546990   -2.12732261718    2.00000000000
     -2.10322347462  -14.72259546990   -2.12732261718    2.00000000000
    -10.51613973119  -10.51613734162   -2.12732261718    2.00000000000
    -14.72259785947   -2.10322108505   -2.12732261718    2.00000000000
    -10.51613799954    2.10323803561  -10.54878703250    2.00000000000
     -2.10322174297   10.51615429218  -10.54878703250    2.00000000000
      2.10323638531   10.51615429218  -10.54878703250    2.00000000000
     10.51615264188    2.10323803561  -10.54878703250    2.00000000000
     10.51615264188   -2.10322009268  -10.54878703250    2.00000000000
      2.10323638531  -10.51613634924  -10.54878703250    2.00000000000
     -2.10322174297  -10.51613634924  -10.54878703250    2.00000000000
    -10.51613799954   -2.10322009268  -10.54878703250    2.00000000000
     -2.10322174297    2.10323803561  -14.75524516078    2.00000000000
      2.10323638531    2.10323803561  -14.75524516078    2.00000000000
      2.10323638531   -2.10322009268  -14.75524516078    2.00000000000
     -2.10322174297   -2.10322009268  -14.75524516078    2.00000000000
    -12.61937438485    8.41291625657    0.00000000000   -2.00000000000
     -8.41291625657   12.61937438485    0.00000000000   -2.00000000000
      8.41291625657   12.61937438485    0.00000000000   -2.00000000000
     12.61937438485    8.41291625657    0.00000000000   -2.00000000000
     12.61937438485   -8.41291625657    0.00000000000   -2.00000000000
      8.41291625657  -12.61937438485    0.00000000000   -2.00000000000
     -8.41291625657  -12.61937438485    0.00000000000   -2.00000000000
    -12.61937438485   -8.41291625657    0.00000000000   -2.00000000000
    -12.61936706368    0.00000897147   -8.44555796836   -2.00000000000
      0.00000732117   12.61938335632   -8.44555796836   -2.00000000000
     12.61938170602    0.00000897147   -8.44555796836   -2.00000000000
      0.00000732117  -12.61936541339   -8.44555796836   -2.00000000000
     -8.41290893540    0.00000897147  -12.65201609664   -2.00000000000
      0.00000732117    8.41292522803  -12.65201609664   -2.00000000000
      8.41292357774    0.00000897147  -12.65201609664   -2.00000000000
      0.00000732117   -8.41290728510  -12.65201609664   -2.00000000000
    -14.72260059364    4.20646185838   -0.04129472389    2.00000000000
     -4.20645890349   14.72260810408   -0.04127288263    2.00000000000
      4.20645735308   14.72260810408   -0.04127288263    2.00000000000
     14.72260630435    4.20646185838   -0.04129472389    2.00000000000
     14.72260630435   -4.20645439819   -0.04129472389    2.00000000000
      4.20645735308  -14.72259879391   -0.04127288263    2.00000000000
     -4.20645890349  -14.72259879391   -0.04127288263    2.00000000000
    -14.72260059364   -4.20645439819   -0.04129472389    2.00000000000
    -12.61936887543    8.41292459085   -2.12731743682    2.00000000000
     -8.41291074714   12.61938271913   -2.12731743682    2.00000000000
      8.41292176600   12.61938271913   -2.12731743682    2.00000000000
     12.61937989428    8.41292459085   -2.12731743682    2.00000000000
     12.61937989428   -8.41290792229   -2.12731743682    2.00000000000
      8.41292176600  -12.61936605057   -2.12731743682    2.00000000000
     -8.41291074714  -12.61936605057   -2.12731743682    2.00000000000
    -12.61936887543   -8.41290792229   -2.12731743682    2.00000000000
    -14.72259612782    0.00000897147   -4.23909984007    2.00000000000
      0.00000732117   14.72261242046   -4.23909984007    2.00000000000
     14.72261077017    0.00000897147   -4.23909984007    2.00000000000
      0.00000732117  -14.72259447753   -4.23909984007    2.00000000000
    -12.61936706368    2.10323803561   -8.44555796836    2.00000000000
     -2.10322174297   12.61938335632   -8.44555796836    2.00000000000
      2.10323638531   12.61938335632   -8.44555796836    2.00000000000
     12.61938170602    2.10323803561   -8.44555796836    2.00000000000
     12.61938170602   -2.10322009268   -8.44555796836    2.00000000000
      2.10323638531  -12.61936541339   -8.44555796836    2.00000000000
     -2.10322174297  -12.61936541339   -8.44555796836    2.00000000000
    -12.61936706368   -2.10322009268   -8.44555796836    2.00000000000
     -8.41290893540    2.10323803561  -12.65201609664    2.00000000000
     -2.10322174297    8.41292522803  -12.65201609664    2.00000000000
      2.10323638531    8.41292522803  -12.65201609664    2.00000000000
      8.41292357774    2.10323803561  -12.65201609664    2.00000000000
      8.41292357774   -2.10322009268  -12.65201609664    2.00000000000
      2.10323638531   -8.41290728510  -12.65201609664    2.00000000000
[...]
 
 (T) correction [au]:                   -0.001640890455
 CCSD(T) correlation energy [au]:       -0.059232862710
 
 CPU time [min]:   544.038                   Wall time [min]:     8.164
 
 MO:    49
 Number of atoms in domain:      19
 Number of atomic orbitals:     457
 Number of atoms for local DF:   12
 Number of fitting functions:  1876  (65.21%)
 Number of occupied orbitals:    21
 Number of virtual  orbitals:   265
 Number of Cholesky vectors:      8
 MP2 energy in ED [au]:          -0.054691224795
 Number of occupied LNOs:         9  (42.86%)
 Number of virtual  LNOs:        26   (9.81%)
 tol*100>norm                   183  9.186195910819161E-003
 tol*100>norm                   206  9.186063126966850E-003
 tol*100>norm                   229  9.186296782236911E-003
 tol*100>norm                   252  9.186076469307818E-003
 tol*100>norm                   275  8.120121765122272E-003
 avg/min projected vLNO norm    9.9814E-01    9.9369E-01
 Number of Cholesky vectors:      5
 MP2 energy in LIS [au]:         -0.054028030943
 Correction for frozen LNO [au]: -0.000663193853     (1.213%)
 Number of NAFs:                 78   (4.16%)
 CPU time [min]:   549.656                   Wall time [min]:     8.249
 

 Direct DF-CCSD(T) calculation
 
 Convergence criterion:  1.0E-05
 
 Number of occupied/virtual/auxiliary orbitals:     9    26    78
     59.41 MB is the minimal memory requirement for (T)
     61.85 MB is the minimal memory requirement for CCSD
 
 MP2 correlation energy [au]:        -0.239692493782
 
 LMP2 domain correlation energy contribution [au]:       -0.054059371356
 
 CPU time [min]:   549.700                   Wall time [min]:     8.249
 
 
 Starting CCSD iterations...
 
                     Residual norm       Correlation Energy
 Iteration  1        0.108328659586       -0.242206179375
 Iteration  2        0.031152301835       -0.247108373802
 Iteration  3        0.010177390039       -0.248226807993
 Iteration  4        0.001892447599       -0.248175176338
 Iteration  5        0.000467261720       -0.248198391096
 Iteration  6        0.000080546705       -0.248202929392
 Iteration  7        0.000014530576       -0.248203078122
 
 CCSD iteration has converged in  7 steps.
       63.32 MB memory was utilized by CCSD
 
 T1 diagnostic:      6.601E-03            D1 diagnostic:      1.553E-02
 
 CCSD correlation energy [au]:          -0.054787006367
 
 CPU time [min]:   549.944                   Wall time [min]:     8.253
 
 Calculation of (T) correction...
 
 Laplace threshold, nquadmin:  1.00E-01   2
 Number of quadrature points:    2
 
       60.18 MB memory is utilized for (T)

 0%       25%       50%       75%       100%
 |---------|---------|---------|---------| 
 
 (T) correction [au]:                   -0.001139393008
 CCSD(T) correlation energy [au]:       -0.055926399375
 
 CPU time [min]:   550.194                   Wall time [min]:     8.257
 
 MO:    50
 Number of atoms in domain:      19
 Number of atomic orbitals:     457
 Number of atoms for local DF:   12
 Number of fitting functions:  1876  (65.21%)
 Number of occupied orbitals:    21
 Number of virtual  orbitals:   265
 Number of Cholesky vectors:      8
 MP2 energy in ED [au]:          -0.054693169674
 Number of occupied LNOs:         9  (42.86%)
 Number of virtual  LNOs:        26   (9.81%)
 tol*100>norm                   183  9.186195910819161E-003
 tol*100>norm                   206  9.186063126966848E-003
 tol*100>norm                   229  9.186296782236912E-003
 tol*100>norm                   252  9.186076469307818E-003
 tol*100>norm                   275  8.120121765122253E-003
 avg/min projected vLNO norm    9.9801E-01    9.9367E-01
 Number of Cholesky vectors:      5
 MP2 energy in LIS [au]:         -0.054038170867
 Correction for frozen LNO [au]: -0.000654998807     (1.198%)
 Number of NAFs:                 80   (4.26%)
 CPU time [min]:   555.820                   Wall time [min]:     8.342
 

 Direct DF-CCSD(T) calculation
 
 Convergence criterion:  1.0E-05
 
 Number of occupied/virtual/auxiliary orbitals:     9    26    80
     59.45 MB is the minimal memory requirement for (T)
     61.88 MB is the minimal memory requirement for CCSD
 
 MP2 correlation energy [au]:        -0.241182611812
 
 LMP2 domain correlation energy contribution [au]:       -0.054065679302
 
 CPU time [min]:   555.880                   Wall time [min]:     8.343
 
 
 Starting CCSD iterations...
 
                     Residual norm       Correlation Energy
 Iteration  1        0.109281075490       -0.243904204457
 Iteration  2        0.031337190082       -0.248853959111
 Iteration  3        0.010186044800       -0.249966174419
 Iteration  4        0.001917127976       -0.249916827190
 Iteration  5        0.000472949705       -0.249940843485
 Iteration  6        0.000078912236       -0.249945246214
 Iteration  7        0.000015055029       -0.249945379412
 
 CCSD iteration has converged in  7 steps.
       63.34 MB memory was utilized by CCSD
 
 T1 diagnostic:      6.597E-03            D1 diagnostic:      1.559E-02
 
 CCSD correlation energy [au]:          -0.054795598970
 
 CPU time [min]:   556.132                   Wall time [min]:     8.347
 
 Calculation of (T) correction...
 
 Laplace threshold, nquadmin:  1.00E-01   2
 Number of quadrature points:    2
 
       60.21 MB memory is utilized for (T)

 0%       25%       50%       75%       100%
 |---------|---------|---------|---------| 
 
 (T) correction [au]:                   -0.001139619095
 CCSD(T) correlation energy [au]:       -0.055935218065
 
 CPU time [min]:   556.344                   Wall time [min]:     8.350
 
 MO:    51
 Number of atoms in domain:      19
 Number of atomic orbitals:     457
 Number of atoms for local DF:   15
 Number of fitting functions:  2305  (80.12%)
 Number of occupied orbitals:    26
 Number of virtual  orbitals:   330
 Number of Cholesky vectors:      8
 MP2 energy in ED [au]:          -0.058159167429
 Number of occupied LNOs:        14  (53.85%)
 Number of virtual  LNOs:        42  (12.73%)
 tol*100>norm                   160  9.308242620432818E-003
 tol*100>norm                   183  9.298893929508618E-003
 tol*100>norm                   252  9.176635863316133E-003
 tol*100>norm                   275  9.179609363199445E-003
 tol*100>norm                   321  8.528453438961451E-003
 tol*100>norm                   344  8.533057874045923E-003
 avg/min projected vLNO norm    9.9947E-01    9.9858E-01
 Number of Cholesky vectors:      6
 MP2 energy in LIS [au]:         -0.057452269942
 Correction for frozen LNO [au]: -0.000706897487     (1.215%)
 Number of NAFs:                136   (5.90%)
 CPU time [min]:   566.442                   Wall time [min]:     8.501
 

 Direct DF-CCSD(T) calculation
 
 Convergence criterion:  1.0E-05
 
 Number of occupied/virtual/auxiliary orbitals:    14    42   136
     72.69 MB is the minimal memory requirement for (T)
     70.73 MB is the minimal memory requirement for CCSD
 
 MP2 correlation energy [au]:        -0.378612573220
 
 LMP2 domain correlation energy contribution [au]:       -0.057472317404
 
 CPU time [min]:   566.496                   Wall time [min]:     8.502
 
 
 Starting CCSD iterations...
 
                     Residual norm       Correlation Energy
 Iteration  1        0.151189496710       -0.390087525022
 Iteration  2        0.045179437504       -0.402444443604
 Iteration  3        0.015312521000       -0.404325343743
 Iteration  4        0.003321475238       -0.404035712853
 Iteration  5        0.001014929893       -0.404030006192
 Iteration  6        0.000261064939       -0.404043444855
 Iteration  7        0.000089032981       -0.404043393267
 Iteration  8        0.000025043871       -0.404042970821
 
 CCSD iteration has converged in  8 steps.
       81.10 MB memory was utilized by CCSD
 
 T1 diagnostic:      1.025E-02            D1 diagnostic:      2.910E-02
 
 CCSD correlation energy [au]:          -0.057591733611
 
 CPU time [min]:   567.086                   Wall time [min]:     8.511
 
 Calculation of (T) correction...
 
 Laplace threshold, nquadmin:  1.00E-01   2
 Number of quadrature points:    2
 
       79.53 MB memory is utilized for (T)

 0%       25%       50%       75%       100%
 |---------|---------|---------|---------| 
 
 (T) correction [au]:                   -0.001640572061
 CCSD(T) correlation energy [au]:       -0.059232305671
 
 CPU time [min]:   567.573                   Wall time [min]:     8.518
 
 MO:    52
 Number of atoms in domain:      19
 Number of atomic orbitals:     457
 Number of atoms for local DF:   15
 Number of fitting functions:  2305  (80.12%)
 Number of occupied orbitals:    26
 Number of virtual  orbitals:   330
 Number of Cholesky vectors:      8
 MP2 energy in ED [au]:          -0.058159513145
 Number of occupied LNOs:        14  (53.85%)
 Number of virtual  LNOs:        42  (12.73%)
 tol*100>norm                   160  9.306065483777595E-003
 tol*100>norm                   206  9.296506091745382E-003
 tol*100>norm                   229  9.176677478205296E-003
 tol*100>norm                   298  9.179347418032585E-003
 tol*100>norm                   321  8.528324665992473E-003
 tol*100>norm                   344  8.533031573758634E-003
 avg/min projected vLNO norm    9.9947E-01    9.9844E-01
 Number of Cholesky vectors:      6
 MP2 energy in LIS [au]:         -0.057452934695
 Correction for frozen LNO [au]: -0.000706578450     (1.215%)
 Number of NAFs:                136   (5.90%)
 CPU time [min]:   577.633                   Wall time [min]:     8.668
 

 Direct DF-CCSD(T) calculation
 
 Convergence criterion:  1.0E-05
 
 Number of occupied/virtual/auxiliary orbitals:    14    42   136
     72.69 MB is the minimal memory requirement for (T)
     70.73 MB is the minimal memory requirement for CCSD
 
 MP2 correlation energy [au]:        -0.378586354978
 
 LMP2 domain correlation energy contribution [au]:       -0.057472995310
 
 CPU time [min]:   577.686                   Wall time [min]:     8.669
 
 
 Starting CCSD iterations...
 
                     Residual norm       Correlation Energy
 Iteration  1        0.151190797858       -0.390062533264
 Iteration  2        0.045177661914       -0.402419320538
 Iteration  3        0.015311347531       -0.404299413509
 Iteration  4        0.003322030517       -0.404009834734
 Iteration  5        0.001015071103       -0.404004140916
 Iteration  6        0.000261075119       -0.404017581680
 Iteration  7        0.000089041196       -0.404017524414
 Iteration  8        0.000025043042       -0.404017100781
 
 CCSD iteration has converged in  8 steps.
       81.10 MB memory was utilized by CCSD
 
 T1 diagnostic:      1.025E-02            D1 diagnostic:      2.909E-02
 
 CCSD correlation energy [au]:          -0.057592556874
 
 CPU time [min]:   578.280                   Wall time [min]:     8.678
 
 Calculation of (T) correction...
 
 Laplace threshold, nquadmin:  1.00E-01   2
 Number of quadrature points:    2
 
       79.53 MB memory is utilized for (T)

 0%       25%       50%       75%       100%
 |---------|---------|---------|---------| 
 
 (T) correction [au]:                   -0.001640509632
 CCSD(T) correlation energy [au]:       -0.059233066506
 
 CPU time [min]:   578.831                   Wall time [min]:     8.686
 
 MO:    53
 Number of atoms in domain:      19
 Number of atomic orbitals:     457
 Number of atoms for local DF:   15
 Number of fitting functions:  2305  (80.12%)
 Number of occupied orbitals:    23
 Number of virtual  orbitals:   330
 Number of Cholesky vectors:      8
 MP2 energy in ED [au]:          -0.057504849218
 Number of occupied LNOs:        11  (47.83%)
 Number of virtual  LNOs:        34  (10.30%)
 tol*100>norm                   183  9.299270053600288E-003
 tol*100>norm                   252  9.180040787646676E-003
 tol*100>norm                   275  9.180175259600631E-003
 tol*100>norm                   321  8.533194067858964E-003
 tol*100>norm                   344  8.533142337561007E-003
 avg/min projected vLNO norm    9.9920E-01    9.9576E-01
 Number of Cholesky vectors:      6
 MP2 energy in LIS [au]:         -0.056779029610
 Correction for frozen LNO [au]: -0.000725819608     (1.262%)
 Number of NAFs:                106   (4.60%)
 CPU time [min]:   587.568                   Wall time [min]:     8.819
 

 Direct DF-CCSD(T) calculation
 
 Convergence criterion:  1.0E-05
 
 Number of occupied/virtual/auxiliary orbitals:    11    34   106
     64.13 MB is the minimal memory requirement for (T)
     64.90 MB is the minimal memory requirement for CCSD
 
 MP2 correlation energy [au]:        -0.277278335551
 
 LMP2 domain correlation energy contribution [au]:       -0.056799104511
 
 CPU time [min]:   587.617                   Wall time [min]:     8.820
 
 
 Starting CCSD iterations...
 
                     Residual norm       Correlation Energy
 Iteration  1        0.132800368491       -0.281771140322
 Iteration  2        0.041945609221       -0.290991489047
 Iteration  3        0.014357665391       -0.292809162455
 Iteration  4        0.003070593219       -0.292568312012
 Iteration  5        0.001057588625       -0.292586720680
 Iteration  6        0.000281104394       -0.292607796604
 Iteration  7        0.000100270922       -0.292607414705
 Iteration  8        0.000026981470       -0.292606039838
 
 CCSD iteration has converged in  8 steps.
       69.33 MB memory was utilized by CCSD
 
 T1 diagnostic:      1.034E-02            D1 diagnostic:      2.962E-02
 
 CCSD correlation energy [au]:          -0.056875955083
 
 CPU time [min]:   588.055                   Wall time [min]:     8.827
 
 Calculation of (T) correction...
 
 Laplace threshold, nquadmin:  1.00E-01   2
 Number of quadrature points:    2
 
       66.58 MB memory is utilized for (T)

 0%       25%       50%       75%       100%
 |---------|---------|---------|---------| 
 
 (T) correction [au]:                   -0.001512435734
 CCSD(T) correlation energy [au]:       -0.058388390816
 
 CPU time [min]:   588.430                   Wall time [min]:     8.832
 
 **********************************************************************
 Dimensions of the extended domains:    Minimum / Average / Maximum
 
 Number of atoms in domain:                  19      19.0        19
 Number of atomic orbitals:                 457     457.0       457
 Number of fitting functions:              1876    2207.9      2877
 Number of occupied localized MOs:           17      24.4        53
 Number of PAOs:                            265     314.4       366
 Number of occupied LNOs:                     9      13.3        42
 Number of virtual  LNOs:                    26      37.6       130
 Number of NAFs:                             78     123.9       476
 
 **********************************************************************
 Distant (and weak) pair contributions, corrections
 
 Sum of pair energies [au]:                    -0.003234699272    (0.108%)
 Sum of energy corrections [au]:               -0.037221279534    (1.241%)
 Pair energies + LNO corrections [au]:         -0.040455978806
 Sum of LMP2 contributions [au]:               -3.000478092395
 
 **********************************************************************
  Time of manipulations in the EDs:      max CPU/Wall [s]  all CPU/Wall [min]
 
 PD construction & multipole pair E     596.63     8.62     9.94     0.14
 Construct MO basis of the ED            17.77     0.24    13.17     0.18
 (mu,nu|P) evaluation & trf 2 (ai|P)    557.39     7.36   185.02     2.44
 Evaluate MP2 energy of the ED           35.98     0.48     9.69     0.13
 Transformations to the LNO basis        26.56     0.38     7.29     0.10
 Build W_PQ (Jai or Jpi part)             6.87     0.11     2.36     0.03
 Evaluate MP2 energy of the LIS           2.33     0.03     0.21     0.00
 (mu,nu|P) evaluation & trf 2 J(abQ)   1317.34    20.57   248.41     4.15
 Total of the above for all EDs        1964.23    29.16   466.16     7.03
 
 **********************************************************************
 Maximum memory requirement [MB]:       
 
 PD construction & multipole pair E         67.3
 AO integral evaluation in the EDs        1370.3
 (mu,nu|P) evaluation & trf 2 (aI|P)      3604.9
 Evaluate MP2 energy in the EDs           1232.5
 Transformation to the LNO basis           698.2
 (mu,nu|P) to Jab transformation          1869.7
 Evaluate MP2 energy in the LIS            781.0
 Minimum requirement for LIS CCSD          558.1
 Actually allocated  for LIS CCSD         1613.9
 Minimum requirement for LIS (T)           769.3
 Actually allocated  for LIS (T)          1584.2
 
 ======================================================================
 ======================================================================
 
 
 
 ======================================================================
 ======================================================================
 
 Final local CC results:
 
 Minimum number of correlated electrons:        18       ( 17.0%)
 Maximum number of correlated electrons:        84       ( 79.2%)
 Average number of correlated electrons:        26.6     ( 25.1%)
 Minimum number of correlated orbitals:         35       (  8.4%)
 Maximum number of correlated orbitals:        172       ( 41.1%)
 Average number of correlated orbitals:         50.9     ( 12.2%)
 
 CPU time for integral calculations [min]:                  4.435
 Wall time for integral calculations [min]:                 1.060
 
 CPU time for SCF calculation [min]:                      134.843
 Wall time for SCF calculation [min]:                       1.790
 
 CPU time for orbital localization [min]:                   0.534
 Wall time for orbital localization [min]:                  0.012
 
 CPU time for integral transformations [min]:             487.032
 Wall time for integral transformations [min]:              7.324
 
 Reference energy [au]:                                -10093.779748327950
 
 LMP2 correlation energy [au]:                             -3.000478092395
 Total LMP2 energy [au]:                               -10096.780226420346
 
 Total MP2 correction for dropped NAFs [au]:                0.001273219995
 Total MP2 correction [au]:                                -0.039182758811
 
 CPU time for CCSD calculations [min]:                     52.135
 Total CPU time for CCSD [min]:                           678.979
 Wall time for CCSD calculations [min]:                     0.793
 Total wall time for CCSD [min]:                           10.979
 
 CCSD correlation energy [au]:                             -2.985154889219
 Total CCSD energy [au]:                               -10096.764903217168
 CCSD correlation energy + 0.5 MP2 corrections [au]:       -3.004746268625
 Total LNO-CCSD energy with MP2 corrections [au]:      -10096.784494596575
 
 CPU time for (T) corrections [min]:                       49.268
 Total CPU time for CCSD(T) [min]:                        728.247
 Wall time for (T) corrections [min]:                       0.716
 Total wall time for CCSD(T) [min]:                        11.694
 
 Total (T) correlation energy contribution [au]:           -0.076493459787
 Total (T) correlation energy+0.5 MP2 correction [au]:     -0.096084839192
 CCSD(T) correlation energy [au]:                          -3.061648349006
 Total CCSD(T) energy [au]:                            -10096.841396676957
 CCSD(T) correlation energy + MP2 corrections [au]:        -3.100831107817
 Total LNO-CCSD(T) energy with MP2 corrections [au]:   -10096.880579435767
 
 ======================================================================
 ======================================================================
 
 ************************ 2021-11-07 15:42:55 *************************
                      Normal termination of mrcc.
 **********************************************************************
