 **********************************************************************
                          MRCC program system
 **********************************************************************
 
                              Written by
 Mihaly Kallay, Peter R. Nagy, David Mester, Zoltan Rolik, Gyula Samu,
   Jozsef Csontos, Jozsef Csoka, P. Bernat Szabo, Laszlo Gyevi-Nagy,
    Bence Hegely, Istvan Ladjanszki, Lorant Szegedy, Bence Ladoczki,
       Klara Petrov, Mate Farkas, Pal D. Mezei, and Adam Ganyecz
 
        Department of Physical Chemistry and Materials Science
            Budapest University of Technology and Economics
                  Budapest P.O.Box 91, H-1521 Hungary
 
                              www.mrcc.hu
 
                    Release date: February 22, 2020

 ************************ 2022-02-09 09:51:14 *************************
 Executing minp...

 Reading input from MINP...
 
 Input file:
 
calc=LB2PLYP
verbosity=3
mem=490GB
symm=off
unit=angs
scfiguess=small
scfmaxit=1000
scfalg=locfit1

lcorthr=tight

charge=-12
core=20

basis=special
bse_AVTZ
bse_CVTZ
bse_CVTZ
bse_AVTZ
bse_AVTZ
bse_AVTZ
bse_AVTZ
bse_AVTZ
bse_AVTZ
bse_AVTZ
bse_AVTZ
bse_AVTZ
nothing
nothing
nothing
nothing
nothing
nothing
nothing
nothing
nothing
nothing
nothing
nothing
nothing
nothing
nothing
nothing
nothing
nothing
nothing
nothing
nothing
nothing
nothing
nothing
nothing
nothing
nothing
nothing
nothing
nothing
nothing
nothing
nothing
nothing
nothing
nothing
nothing
nothing
nothing
nothing
nothing
nothing
nothing
nothing
nothing
nothing
nothing
nothing
nothing
nothing
nothing
nothing
nothing
nothing
nothing
nothing
nothing
nothing
nothing
nothing
nothing
nothing
nothing
nothing
nothing
nothing
nothing

basis_sm=special
STO-3G
STO-3G
STO-3G
STO-3G
STO-3G
STO-3G
STO-3G
STO-3G
STO-3G
STO-3G
STO-3G
STO-3G
nothing
nothing
nothing
nothing
nothing
nothing
nothing
nothing
nothing
nothing
nothing
nothing
nothing
nothing
nothing
nothing
nothing
nothing
nothing
nothing
nothing
nothing
nothing
nothing
nothing
nothing
nothing
nothing
nothing
nothing
nothing
nothing
nothing
nothing
nothing
nothing
nothing
nothing
nothing
nothing
nothing
nothing
nothing
nothing
nothing
nothing
nothing
nothing
nothing
nothing
nothing
nothing
nothing
nothing
nothing
nothing
nothing
nothing
nothing
nothing
nothing
nothing
nothing
nothing
nothing
nothing
nothing

dfbasis_scf=special
bse_AVTZ_autoaux
bse_CVTZ_autoaux
bse_CVTZ_autoaux
bse_AVTZ_autoaux
bse_AVTZ_autoaux
bse_AVTZ_autoaux
bse_AVTZ_autoaux
bse_AVTZ_autoaux
bse_AVTZ_autoaux
bse_AVTZ_autoaux
bse_AVTZ_autoaux
bse_AVTZ_autoaux
nothing
nothing
nothing
nothing
nothing
nothing
nothing
nothing
nothing
nothing
nothing
nothing
nothing
nothing
nothing
nothing
nothing
nothing
nothing
nothing
nothing
nothing
nothing
nothing
nothing
nothing
nothing
nothing
nothing
nothing
nothing
nothing
nothing
nothing
nothing
nothing
nothing
nothing
nothing
nothing
nothing
nothing
nothing
nothing
nothing
nothing
nothing
nothing
nothing
nothing
nothing
nothing
nothing
nothing
nothing
nothing
nothing
nothing
nothing
nothing
nothing
nothing
nothing
nothing
nothing
nothing
nothing

dfbasis_cor=special
bse_AVTZ_autoaux
bse_CVTZ_autoaux
bse_CVTZ_autoaux
bse_AVTZ_autoaux
bse_AVTZ_autoaux
bse_AVTZ_autoaux
bse_AVTZ_autoaux
bse_AVTZ_autoaux
bse_AVTZ_autoaux
bse_AVTZ_autoaux
bse_AVTZ_autoaux
bse_AVTZ_autoaux
nothing
nothing
nothing
nothing
nothing
nothing
nothing
nothing
nothing
nothing
nothing
nothing
nothing
nothing
nothing
nothing
nothing
nothing
nothing
nothing
nothing
nothing
nothing
nothing
nothing
nothing
nothing
nothing
nothing
nothing
nothing
nothing
nothing
nothing
nothing
nothing
nothing
nothing
nothing
nothing
nothing
nothing
nothing
nothing
nothing
nothing
nothing
nothing
nothing
nothing
nothing
nothing
nothing
nothing
nothing
nothing
nothing
nothing
nothing
nothing
nothing
nothing
nothing
nothing
nothing
nothing
nothing

ecp=special
none
none
none
none
none
none
none
none
none
none
none
none
ECP-22
ECP-22
ECP-22
ECP-22
ECP-22
ECP-22
ECP-22
ECP-22
ECP-22
ECP-22
ECP-22
ECP-22
ECP-22
ECP-22
ECP-22
ECP-22
ECP-22
ECP-22
ECP-22
ECP-22
ECP-22
ECP-22
ECP-22
ECP-22
ECP-22
ECP-22
ECP-22
ECP-22
ECP-22
ECP-22
ECP-22
ECP-22
ECP-22
ECP-22
ECP-22
ECP-22
ECP-22
ECP-22
ECP-22
ECP-22
ECP-22
ECP-22
ECP-22
ECP-22
ECP-22
ECP-22
ECP-22
ECP-22
ECP-22
ECP-22
ECP-22
ECP-22
ECP-22
ECP-22
ECP-22
ECP-22
ECP-22
ECP-22
ECP-22
ECP-22
ECP-22
ECP-22
ECP-22
ECP-22
ECP-22
ECP-22
ECP-22

unit=angs
geom=xyz
79
Ti2O10ECP67
O     0.00000000000    0.00000000000    0.00000000000
Ti    0.00000536997    1.48055149700   -1.06892606631
Ti    0.00000552101   -1.48055312386   -1.06892138720
O     0.00000442396   -0.00000111986   -2.54840301833
O    -2.03525914147    1.48054518365   -1.11149385695
O     2.03526534753    1.48054527935   -1.11149163807
O     2.03526471018   -1.48054700097   -1.11149295951
O    -2.03525907462   -1.48054722666   -1.11149503385
O    -0.00000037752    2.96109155033   -0.00000271770
O    -0.00000037752   -2.96109552160   -0.00000271770
O     0.00000449994    2.96109199200   -2.54840438198
O     0.00000449994   -2.96109507993   -2.54840438198
Ti    3.25402319191   -0.00000112036   -1.42716202606
Ti   -3.25401610555   -0.00000112036   -1.42716202606
Ti   -0.00005220374   -0.00000071014   -4.41288396045
Ti    0.00000552101    4.44163394806   -1.06892138720
Ti    0.00000536997   -4.44163557493   -1.06892606631
Ti   -3.25401668289    2.96109302555   -1.42716235830
Ti    3.25402261457    2.96109302555   -1.42716235830
Ti    3.25402261457   -2.96109404638   -1.42716235830
Ti   -3.25401668289   -2.96109404638   -1.42716235830
Ti   -0.00005206359    2.96109301637   -4.41288206312
Ti   -0.00005206359   -2.96109405556   -4.41288206312
Ti    3.25395215162    1.48054533538   -4.59991327640
Ti    3.25395195581   -1.48054722422   -4.59991284715
Ti   -3.25408714585    1.48054533538   -4.59991327640
Ti   -3.25408734165   -1.48054722422   -4.59991284715
Ti   -6.50803392749    1.48055149700   -1.06892606631
Ti    6.50804466744    1.48055149700   -1.06892606631
Ti    6.50804481848   -1.48055312386   -1.06892138720
Ti   -6.50803377645   -1.48055312386   -1.06892138720
Ti   -3.25401610555    5.92218595157   -1.42716202606
Ti    3.25402319191    5.92218595157   -1.42716202606
Ti    3.25402319191   -5.92218819228   -1.42716202606
Ti   -3.25401610555   -5.92218819228   -1.42716202606
Ti    3.25395195581    4.44163984770   -4.59991284715
Ti    3.25395215162   -4.44164173655   -4.59991327640
Ti   -3.25408734165    4.44163984770   -4.59991284715
Ti   -3.25408714585   -4.44164173655   -4.59991327640
Ti   -0.00005220374    5.92218636178   -4.41288396045
Ti   -0.00005220374   -5.92218778207   -4.41288396045
Ti    0.00000536997    7.40273856892   -1.06892606631
Ti    0.00000552101   -7.40274019579   -1.06892138720
Ti    6.50798709372   -0.00000071014   -4.41288396045
Ti   -6.50809150121   -0.00000071014   -4.41288396045
Ti   -0.00000306899    1.48054576566   -7.78540932970
Ti   -0.00000306899   -1.48054777030   -7.78540932970
Ti   -6.50803377645    4.44163394806   -1.06892138720
Ti    6.50804481848    4.44163394806   -1.06892138720
Ti    6.50804466744   -4.44163557493   -1.06892606631
Ti   -6.50803392749   -4.44163557493   -1.06892606631
Ti    6.50798723387    2.96109301637   -4.41288206312
Ti    6.50798723387   -2.96109405556   -4.41288206312
Ti   -6.50809136106    2.96109301637   -4.41288206312
Ti   -6.50809136106   -2.96109405556   -4.41288206312
Ti    3.25401657974   -0.00000100232   -7.78540932970
Ti   -3.25402271772   -0.00000100232   -7.78540932970
Ti   -3.25402271772    2.96109253364   -7.78540932970
Ti    3.25401657974    2.96109253364   -7.78540932970
Ti    3.25401657974   -2.96109453828   -7.78540932970
Ti   -3.25402271772   -2.96109453828   -7.78540932970
Ti   -0.00000306899    4.44163930162   -7.78540932970
Ti   -0.00000306899   -4.44164130627   -7.78540932970
Ti   -3.25408714585    7.40273240730   -4.59991327640
Ti    3.25395215162    7.40273240730   -4.59991327640
Ti    3.25395195581   -7.40273429615   -4.59991284715
Ti   -3.25408734165   -7.40273429615   -4.59991284715
Ti   -3.25401668289    8.88328009748   -1.42716235830
Ti    3.25402261457    8.88328009748   -1.42716235830
Ti    3.25402261457   -8.88328111830   -1.42716235830
Ti   -3.25401668289   -8.88328111830   -1.42716235830
Ti   -0.00005206359    8.88328008829   -4.41288206312
Ti   -0.00005206359   -8.88328112748   -4.41288206312
Ti   -3.25402271772    5.92218606960   -7.78540932970
Ti    3.25401657974    5.92218606960   -7.78540932970
Ti    3.25401657974   -5.92218807425   -7.78540932970
Ti   -3.25402271772   -5.92218807425   -7.78540932970
Ti   -0.00000306899    7.40273283758   -7.78540932970
Ti   -0.00000306899   -7.40273484223   -7.78540932970

qmmm=Amber
pointcharges
12981
      3.25402319191   -0.00000112036   -1.42716202606    4.00000000000
     -3.25401610555   -0.00000112036   -1.42716202606    4.00000000000
     -0.00005220374   -0.00000071014   -4.41288396045    4.00000000000
      0.00000552101    4.44163394806   -1.06892138720    4.00000000000
      0.00000536997   -4.44163557493   -1.06892606631    4.00000000000
      3.25402603430   -0.00000063665   -3.23990501486   -2.00000000000
     -3.25401326317   -0.00000063665   -3.23990501486   -2.00000000000
     -3.25401668289    2.96109302555   -1.42716235830    4.00000000000
      3.25402261457    2.96109302555   -1.42716235830    4.00000000000
      3.25402261457   -2.96109404638   -1.42716235830    4.00000000000
     -3.25401668289   -2.96109404638   -1.42716235830    4.00000000000
     -4.47277394994    1.48054527935   -1.11149163807   -2.00000000000
      4.47278015600    1.48054518365   -1.11149385695   -2.00000000000
      4.47278022285   -1.48054722666   -1.11149503385   -2.00000000000
     -4.47277458729   -1.48054700097   -1.11149295951   -2.00000000000
     -1.30106804451    1.48054600613   -4.51644966155   -2.00000000000
      1.30109103436    1.48054591013   -4.51645509582   -2.00000000000
      1.30109095673   -1.48054821213   -4.51645492343   -2.00000000000
     -1.30106798933   -1.48054805070   -4.51644946585   -2.00000000000
     -2.03525907462    4.44163984526   -1.11149503385   -2.00000000000
      2.03526471018    4.44164007096   -1.11149295951   -2.00000000000
      2.03526534753   -4.44164179257   -1.11149163807   -2.00000000000
     -2.03525914147   -4.44164188827   -1.11149385695   -2.00000000000
     -0.00005206359    2.96109301637   -4.41288206312    4.00000000000
     -0.00005206359   -2.96109405556   -4.41288206312    4.00000000000
     -3.25401306857    2.96109209923   -3.23990596489   -2.00000000000
      3.25402622890    2.96109209923   -3.23990596489   -2.00000000000
      3.25402622890   -2.96109497270   -3.23990596489   -2.00000000000
     -3.25401306857   -2.96109497270   -3.23990596489   -2.00000000000
      3.25395215162    1.48054533538   -4.59991327640    4.00000000000
      3.25395195581   -1.48054722422   -4.59991284715    4.00000000000
     -3.25408714585    1.48054533538   -4.59991327640    4.00000000000
     -3.25408734165   -1.48054722422   -4.59991284715    4.00000000000
      0.00000000000    5.92218707193    0.00000000000   -2.00000000000
      0.00000000000   -5.92218707193    0.00000000000   -2.00000000000
     -4.47277458729    4.44164007096   -1.11149295951   -2.00000000000
      4.47278022285    4.44163984526   -1.11149503385   -2.00000000000
      4.47278015600   -4.44164188827   -1.11149385695   -2.00000000000
     -4.47277394994   -4.44164179257   -1.11149163807   -2.00000000000
      0.00000442396    5.92218595207   -2.54840301833   -2.00000000000
      0.00000442396   -5.92218819178   -2.54840301833   -2.00000000000
     -1.30106798933    4.44163902122   -4.51644946585   -2.00000000000
      1.30109095673    4.44163885980   -4.51645492343   -2.00000000000
      1.30109103436   -4.44164116180   -4.51645509582   -2.00000000000
     -1.30106804451   -4.44164106579   -4.51644966155   -2.00000000000
     -6.50803929747    0.00000000000    0.00000000000   -2.00000000000
      6.50803929747    0.00000000000    0.00000000000   -2.00000000000
     -0.00000306899   -0.00000100232   -6.51331789952   -2.00000000000
      3.25402501297   -0.00000107099   -5.78839374873   -2.00000000000
     -3.25401428450   -0.00000107099   -5.78839374873   -2.00000000000
     -6.50803392749    1.48055149700   -1.06892606631    4.00000000000
      6.50804466744    1.48055149700   -1.06892606631    4.00000000000
      6.50804481848   -1.48055312386   -1.06892138720    4.00000000000
     -6.50803377645   -1.48055312386   -1.06892138720    4.00000000000
     -3.25401610555    5.92218595157   -1.42716202606    4.00000000000
      3.25402319191    5.92218595157   -1.42716202606    4.00000000000
      3.25402319191   -5.92218819228   -1.42716202606    4.00000000000
     -3.25401610555   -5.92218819228   -1.42716202606    4.00000000000
      6.50804372142   -0.00000111986   -2.54840301833   -2.00000000000
     -6.50803487351   -0.00000111986   -2.54840301833   -2.00000000000
     -5.20694826311    1.48054591013   -4.51645509582   -2.00000000000
      5.20697125296    1.48054600613   -4.51644966155   -2.00000000000
      5.20697130813   -1.48054805070   -4.51644946585   -2.00000000000
     -5.20694834074   -1.48054821213   -4.51645492343   -2.00000000000
     -6.50803967498    2.96109155033   -0.00000271770   -2.00000000000
      6.50803891995    2.96109155033   -0.00000271770   -2.00000000000
      6.50803891995   -2.96109552160   -0.00000271770   -2.00000000000
     -6.50803967498   -2.96109552160   -0.00000271770   -2.00000000000
     -0.00000306899    2.96109253364   -6.51331789952   -2.00000000000
     -0.00000306899   -2.96109453828   -6.51331789952   -2.00000000000
      3.25395195581    4.44163984770   -4.59991284715    4.00000000000
      3.25395215162   -4.44164173655   -4.59991327640    4.00000000000
     -3.25408734165    4.44163984770   -4.59991284715    4.00000000000
     -3.25408714585   -4.44164173655   -4.59991327640    4.00000000000
     -3.25401413420    2.96109275570   -5.78839415273   -2.00000000000
      3.25402516327    2.96109275570   -5.78839415273   -2.00000000000
      3.25402516327   -2.96109431623   -5.78839415273   -2.00000000000
     -3.25401413420   -2.96109431623   -5.78839415273   -2.00000000000
     -0.00005220374    5.92218636178   -4.41288396045    4.00000000000
     -0.00005220374   -5.92218778207   -4.41288396045    4.00000000000
      0.00000536997    7.40273856892   -1.06892606631    4.00000000000
      0.00000552101   -7.40274019579   -1.06892138720    4.00000000000
     -3.25401326317    5.92218643528   -3.23990501486   -2.00000000000
      3.25402603430    5.92218643528   -3.23990501486   -2.00000000000
      3.25402603430   -5.92218770857   -3.23990501486   -2.00000000000
     -3.25401326317   -5.92218770857   -3.23990501486   -2.00000000000
     -6.50803479753    2.96109199200   -2.54840438198   -2.00000000000
      6.50804379741    2.96109199200   -2.54840438198   -2.00000000000
      6.50804379741   -2.96109507993   -2.54840438198   -2.00000000000
     -6.50803479753   -2.96109507993   -2.54840438198   -2.00000000000
     -2.03525914147    7.40273225558   -1.11149385695   -2.00000000000
      2.03526534753    7.40273235128   -1.11149163807   -2.00000000000
      2.03526471018   -7.40273407290   -1.11149295951   -2.00000000000
     -2.03525907462   -7.40273429859   -1.11149503385   -2.00000000000
      6.50798709372   -0.00000071014   -4.41288396045    4.00000000000
     -6.50809150121   -0.00000071014   -4.41288396045    4.00000000000
     -0.00000306899    1.48054576566   -7.78540932970    4.00000000000
     -0.00000306899   -1.48054777030   -7.78540932970    4.00000000000
     -6.50803377645    4.44163394806   -1.06892138720    4.00000000000
      6.50804481848    4.44163394806   -1.06892138720    4.00000000000
      6.50804466744   -4.44163557493   -1.06892606631    4.00000000000
     -6.50803392749   -4.44163557493   -1.06892606631    4.00000000000
     -1.98193128755    1.48054576566   -7.78540932970   -2.00000000000
      1.98192514957    1.48054576566   -7.78540932970   -2.00000000000
      1.98192514957   -1.48054777030   -7.78540932970   -2.00000000000
     -1.98193128755   -1.48054777030   -7.78540932970   -2.00000000000
     -5.20694834074    4.44163885980   -4.51645492343   -2.00000000000
      5.20697130813    4.44163902122   -4.51644946585   -2.00000000000
      5.20697125296   -4.44164106579   -4.51644966155   -2.00000000000
     -5.20694826311   -4.44164116180   -4.51645509582   -2.00000000000
      6.50798723387    2.96109301637   -4.41288206312    4.00000000000
      6.50798723387   -2.96109405556   -4.41288206312    4.00000000000
     -6.50809136106    2.96109301637   -4.41288206312    4.00000000000
     -6.50809136106   -2.96109405556   -4.41288206312    4.00000000000
      3.25401657974   -0.00000100232   -7.78540932970    4.00000000000
     -3.25402271772   -0.00000100232   -7.78540932970    4.00000000000
     -4.47277394994    7.40273235128   -1.11149163807   -2.00000000000
      4.47278015600    7.40273225558   -1.11149385695   -2.00000000000
      4.47278022285   -7.40273429859   -1.11149503385   -2.00000000000
     -4.47277458729   -7.40273407290   -1.11149295951   -2.00000000000
     -8.54329843894    1.48054518365   -1.11149385695   -2.00000000000
      8.54330464500    1.48054527935   -1.11149163807   -2.00000000000
      8.54330400764   -1.48054700097   -1.11149295951   -2.00000000000
     -8.54329837208   -1.48054722666   -1.11149503385   -2.00000000000
     -1.30106804451    7.40273307806   -4.51644966155   -2.00000000000
      1.30109103436    7.40273298205   -4.51645509582   -2.00000000000
      1.30109095673   -7.40273528405   -4.51645492343   -2.00000000000
     -1.30106798933   -7.40273512263   -4.51644946585   -2.00000000000
     -6.50803929747    5.92218707193    0.00000000000   -2.00000000000
      6.50803929747    5.92218707193    0.00000000000   -2.00000000000
      6.50803929747   -5.92218707193    0.00000000000   -2.00000000000
     -6.50803929747   -5.92218707193    0.00000000000   -2.00000000000
     -0.00000306899    5.92218606960   -6.51331789952   -2.00000000000
     -0.00000306899   -5.92218807425   -6.51331789952   -2.00000000000
     -0.00000037752    8.88327862225   -0.00000271770   -2.00000000000
     -0.00000037752   -8.88328259352   -0.00000271770   -2.00000000000
     -3.25401428450    5.92218600093   -5.78839374873   -2.00000000000
      3.25402501297    5.92218600093   -5.78839374873   -2.00000000000
      3.25402501297   -5.92218814292   -5.78839374873   -2.00000000000
     -3.25401428450   -5.92218814292   -5.78839374873   -2.00000000000
     -3.25402271772    2.96109253364   -7.78540932970    4.00000000000
      3.25401657974    2.96109253364   -7.78540932970    4.00000000000
      3.25401657974   -2.96109453828   -7.78540932970    4.00000000000
     -3.25402271772   -2.96109453828   -7.78540932970    4.00000000000
     -0.00000306899    4.44163930162   -7.78540932970    4.00000000000
     -0.00000306899   -4.44164130627   -7.78540932970    4.00000000000
     -0.00000306899   -0.00000100232   -9.05750075987   -2.00000000000
     -7.80910734197    1.48054600613   -4.51644966155   -2.00000000000
      7.80913033182    1.48054591013   -4.51645509582   -2.00000000000
      7.80913025419   -1.48054821213   -4.51645492343   -2.00000000000
     -7.80910728680   -1.48054805070   -4.51644946585   -2.00000000000
     -6.50803487351    5.92218595207   -2.54840301833   -2.00000000000
      6.50804372142    5.92218595207   -2.54840301833   -2.00000000000
      6.50804372142   -5.92218819178   -2.54840301833   -2.00000000000
     -6.50803487351   -5.92218819178   -2.54840301833   -2.00000000000
     -1.98193128755    4.44163930162   -7.78540932970   -2.00000000000
      1.98192514957    4.44163930162   -7.78540932970   -2.00000000000
      1.98192514957   -4.44164130627   -7.78540932970   -2.00000000000
     -1.98193128755   -4.44164130627   -7.78540932970   -2.00000000000
      0.00000449994    8.88327906392   -2.54840438198   -2.00000000000
      0.00000449994   -8.88328215185   -2.54840438198   -2.00000000000
     -3.25408714585    7.40273240730   -4.59991327640    4.00000000000
      3.25395215162    7.40273240730   -4.59991327640    4.00000000000
      3.25395195581   -7.40273429615   -4.59991284715    4.00000000000
     -3.25408734165   -7.40273429615   -4.59991284715    4.00000000000
     -0.00000306899    2.96109253364   -9.05750075987   -2.00000000000
     -0.00000306899   -2.96109453828   -9.05750075987   -2.00000000000
     -3.25401668289    8.88328009748   -1.42716235830    4.00000000000
      3.25402261457    8.88328009748   -1.42716235830    4.00000000000
      3.25402261457   -8.88328111830   -1.42716235830    4.00000000000
     -3.25401668289   -8.88328111830   -1.42716235830    4.00000000000
     -0.00005206359    8.88328008829   -4.41288206312    4.00000000000
     -0.00005206359   -8.88328112748   -4.41288206312    4.00000000000
     -3.25401306857    8.88327917115   -3.23990596489   -2.00000000000
      3.25402622890    8.88327917115   -3.23990596489   -2.00000000000
      3.25402622890   -8.88328204462   -3.23990596489   -2.00000000000
     -3.25401306857   -8.88328204462   -3.23990596489   -2.00000000000
     -3.25402271772    5.92218606960   -7.78540932970    4.00000000000
      3.25401657974    5.92218606960   -7.78540932970    4.00000000000
      3.25401657974   -5.92218807425   -7.78540932970    4.00000000000
     -3.25402271772   -5.92218807425   -7.78540932970    4.00000000000
     -0.00000306899    7.40273283758   -7.78540932970    4.00000000000
     -0.00000306899   -7.40273484223   -7.78540932970    4.00000000000
     -4.52611414790    1.48054576566   -7.78540932970   -2.00000000000
      4.52610800992    1.48054576566   -7.78540932970   -2.00000000000
      4.52610800992   -1.48054777030   -7.78540932970   -2.00000000000
     -4.52611414790   -1.48054777030   -7.78540932970   -2.00000000000
      6.50803622848   -0.00000100232   -6.51331789952   -2.00000000000
     -6.50804236645   -0.00000100232   -6.51331789952   -2.00000000000
     -6.50804236645    2.96109253364   -6.51331789952   -2.00000000000
      6.50803622848    2.96109253364   -6.51331789952   -2.00000000000
      6.50803622848   -2.96109453828   -6.51331789952   -2.00000000000
     -6.50804236645   -2.96109453828   -6.51331789952   -2.00000000000
     -8.54329837208    4.44163984526   -1.11149503385   -2.00000000000
      8.54330400764    4.44164007096   -1.11149295951   -2.00000000000
      8.54330464500   -4.44164179257   -1.11149163807   -2.00000000000
     -8.54329843894   -4.44164188827   -1.11149385695   -2.00000000000
      6.50798709372    5.92218636178   -4.41288396045    4.00000000000
      6.50798709372   -5.92218778207   -4.41288396045    4.00000000000
     -6.50809150121    5.92218636178   -4.41288396045    4.00000000000
     -6.50809150121   -5.92218778207   -4.41288396045    4.00000000000
      9.76206248938   -0.00000112036   -1.42716202606    4.00000000000
     -9.76205540302   -0.00000112036   -1.42716202606    4.00000000000
     -6.50803392749    7.40273856892   -1.06892606631    4.00000000000
      6.50804466744    7.40273856892   -1.06892606631    4.00000000000
      6.50804481848   -7.40274019579   -1.06892138720    4.00000000000
     -6.50803377645   -7.40274019579   -1.06892138720    4.00000000000
     -4.52611414790    4.44163930162   -7.78540932970   -2.00000000000
      4.52610800992    4.44163930162   -7.78540932970   -2.00000000000
      4.52610800992   -4.44164130627   -7.78540932970   -2.00000000000
     -4.52611414790   -4.44164130627   -7.78540932970   -2.00000000000
     -7.80910728680    4.44163902122   -4.51644946585   -2.00000000000
      7.80913025419    4.44163885980   -4.51645492343   -2.00000000000
      7.80913033182   -4.44164116180   -4.51645509582   -2.00000000000
     -7.80910734197   -4.44164106579   -4.51644966155   -2.00000000000
     -5.20694826311    7.40273298205   -4.51645509582   -2.00000000000
      5.20697125296    7.40273307806   -4.51644966155   -2.00000000000
      5.20697130813   -7.40273512263   -4.51644946585   -2.00000000000
     -5.20694834074   -7.40273528405   -4.51645492343   -2.00000000000
     -6.50804236645    1.48054576566   -7.78540932970    4.00000000000
      6.50803622848    1.48054576566   -7.78540932970    4.00000000000
      6.50803622848   -1.48054777030   -7.78540932970    4.00000000000
     -6.50804236645   -1.48054777030   -7.78540932970    4.00000000000
      9.76206533176   -0.00000063665   -3.23990501486   -2.00000000000
     -9.76205256063   -0.00000063665   -3.23990501486   -2.00000000000
      3.25401657974   -0.00000100232   -9.76733754826   -2.00000000000
     -3.25402271772   -0.00000100232   -9.76733754826   -2.00000000000
     -9.76205598036    2.96109302555   -1.42716235830    4.00000000000
      9.76206191204    2.96109302555   -1.42716235830    4.00000000000
      9.76206191204   -2.96109404638   -1.42716235830    4.00000000000
     -9.76205598036   -2.96109404638   -1.42716235830    4.00000000000
      0.00000552101   10.36382101999   -1.06892138720    4.00000000000
      0.00000536997  -10.36382264685   -1.06892606631    4.00000000000
     -2.03525907462   10.36382691719   -1.11149503385   -2.00000000000
      2.03526471018   10.36382714288   -1.11149295951   -2.00000000000
      2.03526534753  -10.36382886450   -1.11149163807   -2.00000000000
     -2.03525914147  -10.36382896020   -1.11149385695   -2.00000000000
     -9.76205236604    2.96109209923   -3.23990596489   -2.00000000000
      9.76206552636    2.96109209923   -3.23990596489   -2.00000000000
      9.76206552636   -2.96109497270   -3.23990596489   -2.00000000000
     -9.76205236604   -2.96109497270   -3.23990596489   -2.00000000000
     -3.25402271772    2.96109253364   -9.76733754826   -2.00000000000
      3.25401657974    2.96109253364   -9.76733754826   -2.00000000000
      3.25401657974   -2.96109453828   -9.76733754826   -2.00000000000
     -3.25402271772   -2.96109453828   -9.76733754826   -2.00000000000
     -0.00000306899    5.92218606960   -9.05750075987   -2.00000000000
     -0.00000306899   -5.92218807425   -9.05750075987   -2.00000000000
      9.76199144908    1.48054533538   -4.59991327640    4.00000000000
      9.76199125328   -1.48054722422   -4.59991284715    4.00000000000
     -9.76212644332    1.48054533538   -4.59991327640    4.00000000000
     -9.76212663912   -1.48054722422   -4.59991284715    4.00000000000
     -1.98193128755    7.40273283758   -7.78540932970   -2.00000000000
      1.98192514957    7.40273283758   -7.78540932970   -2.00000000000
      1.98192514957   -7.40273484223   -7.78540932970   -2.00000000000
     -1.98193128755   -7.40273484223   -7.78540932970   -2.00000000000
     -6.50804236645    5.92218606960   -6.51331789952   -2.00000000000
      6.50803622848    5.92218606960   -6.51331789952   -2.00000000000
      6.50803622848   -5.92218807425   -6.51331789952   -2.00000000000
     -6.50804236645   -5.92218807425   -6.51331789952   -2.00000000000
     -6.50803967498    8.88327862225   -0.00000271770   -2.00000000000
      6.50803891995    8.88327862225   -0.00000271770   -2.00000000000
      6.50803891995   -8.88328259352   -0.00000271770   -2.00000000000
     -6.50803967498   -8.88328259352   -0.00000271770   -2.00000000000
     -0.00000306899    8.88327960557   -6.51331789952   -2.00000000000
     -0.00000306899   -8.88328161021   -6.51331789952   -2.00000000000
     -0.00000306899   -0.00000100232  -11.03942897843    4.00000000000
     -6.50804236645    4.44163930162   -7.78540932970    4.00000000000
      6.50803622848    4.44163930162   -7.78540932970    4.00000000000
      6.50803622848   -4.44164130627   -7.78540932970    4.00000000000
     -6.50804236645   -4.44164130627   -7.78540932970    4.00000000000
     -3.25401413420    8.88327982762   -5.78839415273   -2.00000000000
      3.25402516327    8.88327982762   -5.78839415273   -2.00000000000
      3.25402516327   -8.88328138815   -5.78839415273   -2.00000000000
     -3.25401413420   -8.88328138815   -5.78839415273   -2.00000000000
    -10.98081324740    1.48054527935   -1.11149163807   -2.00000000000
     10.98081945346    1.48054518365   -1.11149385695   -2.00000000000
     10.98081952031   -1.48054722666   -1.11149503385   -2.00000000000
    -10.98081388475   -1.48054700097   -1.11149295951   -2.00000000000
      6.50803622848   -0.00000100232   -9.05750075987   -2.00000000000
     -6.50804236645   -0.00000100232   -9.05750075987   -2.00000000000
     -1.27209449916    1.48054576566  -11.03942897843   -2.00000000000
      1.27208836119    1.48054576566  -11.03942897843   -2.00000000000
      1.27208836119   -1.48054777030  -11.03942897843   -2.00000000000
     -1.27209449916   -1.48054777030  -11.03942897843   -2.00000000000
     -6.50803479753    8.88327906392   -2.54840438198   -2.00000000000
      6.50804379741    8.88327906392   -2.54840438198   -2.00000000000
      6.50804379741   -8.88328215185   -2.54840438198   -2.00000000000
     -6.50803479753   -8.88328215185   -2.54840438198   -2.00000000000
     -4.47277458729   10.36382714288   -1.11149295951   -2.00000000000
      4.47278022285   10.36382691719   -1.11149503385   -2.00000000000
      4.47278015600  -10.36382896020   -1.11149385695   -2.00000000000
     -4.47277394994  -10.36382886450   -1.11149163807   -2.00000000000
      9.76206431043   -0.00000107099   -5.78839374873   -2.00000000000
     -9.76205358197   -0.00000107099   -5.78839374873   -2.00000000000
     -8.54329843894    7.40273225558   -1.11149385695   -2.00000000000
      8.54330464500    7.40273235128   -1.11149163807   -2.00000000000
      8.54330400764   -7.40273407290   -1.11149295951   -2.00000000000
     -8.54329837208   -7.40273429859   -1.11149503385   -2.00000000000
     -1.30106798933   10.36382609315   -4.51644946585   -2.00000000000
      1.30109095673   10.36382593172   -4.51645492343   -2.00000000000
      1.30109103436  -10.36382823372   -4.51645509582   -2.00000000000
     -1.30106804451  -10.36382813772   -4.51644966155   -2.00000000000
     -0.00000306899    2.96109253364  -11.03942897843    4.00000000000
     -0.00000306899   -2.96109453828  -11.03942897843    4.00000000000
     -9.76205540302    5.92218595157   -1.42716202606    4.00000000000
      9.76206248938    5.92218595157   -1.42716202606    4.00000000000
      9.76206248938   -5.92218819228   -1.42716202606    4.00000000000
     -9.76205540302   -5.92218819228   -1.42716202606    4.00000000000
     -6.50804236645    2.96109253364   -9.05750075987   -2.00000000000
      6.50803622848    2.96109253364   -9.05750075987   -2.00000000000
      6.50803622848   -2.96109453828   -9.05750075987   -2.00000000000
     -6.50804236645   -2.96109453828   -9.05750075987   -2.00000000000
     -3.25402271772    1.48054576566  -11.03942897843    4.00000000000
      3.25401657974    1.48054576566  -11.03942897843    4.00000000000
      3.25401657974   -1.48054777030  -11.03942897843    4.00000000000
     -3.25402271772   -1.48054777030  -11.03942897843    4.00000000000
     -8.48997058501    1.48054576566   -7.78540932970   -2.00000000000
      8.48996444703    1.48054576566   -7.78540932970   -2.00000000000
      8.48996444703   -1.48054777030   -7.78540932970   -2.00000000000
     -8.48997058501   -1.48054777030   -7.78540932970   -2.00000000000
     -4.52611414790    7.40273283758   -7.78540932970   -2.00000000000
      4.52610800992    7.40273283758   -7.78540932970   -2.00000000000
      4.52610800992   -7.40273484223   -7.78540932970   -2.00000000000
     -4.52611414790   -7.40273484223   -7.78540932970   -2.00000000000
     -7.80910734197    7.40273307806   -4.51644966155   -2.00000000000
      7.80913033182    7.40273298205   -4.51645509582   -2.00000000000
      7.80913025419   -7.40273528405   -4.51645492343   -2.00000000000
     -7.80910728680   -7.40273512263   -4.51644946585   -2.00000000000
      9.76199125328    4.44163984770   -4.59991284715    4.00000000000
      9.76199144908   -4.44164173655   -4.59991327640    4.00000000000
     -9.76212663912    4.44163984770   -4.59991284715    4.00000000000
     -9.76212644332   -4.44164173655   -4.59991327640    4.00000000000
     -9.76205343167    2.96109275570   -5.78839415273   -2.00000000000
      9.76206446073    2.96109275570   -5.78839415273   -2.00000000000
      9.76206446073   -2.96109431623   -5.78839415273   -2.00000000000
     -9.76205343167   -2.96109431623   -5.78839415273   -2.00000000000
     -3.25408734165   10.36382691963   -4.59991284715    4.00000000000
      3.25395195581   10.36382691963   -4.59991284715    4.00000000000
      3.25395215162  -10.36382880847   -4.59991327640    4.00000000000
     -3.25408714585  -10.36382880847   -4.59991327640    4.00000000000
      0.00000000000   11.84437414385    0.00000000000   -2.00000000000
      0.00000000000  -11.84437414385    0.00000000000   -2.00000000000
      6.50798723387    8.88328008829   -4.41288206312    4.00000000000
      6.50798723387   -8.88328112748   -4.41288206312    4.00000000000
     -6.50809136106    8.88328008829   -4.41288206312    4.00000000000
     -6.50809136106   -8.88328112748   -4.41288206312    4.00000000000
     -9.76205256063    5.92218643528   -3.23990501486   -2.00000000000
      9.76206533176    5.92218643528   -3.23990501486   -2.00000000000
      9.76206533176   -5.92218770857   -3.23990501486   -2.00000000000
     -9.76205256063   -5.92218770857   -3.23990501486   -2.00000000000
     -3.25402271772    5.92218606960   -9.76733754826   -2.00000000000
      3.25401657974    5.92218606960   -9.76733754826   -2.00000000000
      3.25401657974   -5.92218807425   -9.76733754826   -2.00000000000
     -3.25402271772   -5.92218807425   -9.76733754826   -2.00000000000
    -10.98081388475    4.44164007096   -1.11149295951   -2.00000000000
     10.98081952031    4.44163984526   -1.11149503385   -2.00000000000
     10.98081945346   -4.44164188827   -1.11149385695   -2.00000000000
    -10.98081324740   -4.44164179257   -1.11149163807   -2.00000000000
     -1.27209449916    4.44163930162  -11.03942897843   -2.00000000000
      1.27208836119    4.44163930162  -11.03942897843   -2.00000000000
      1.27208836119   -4.44164130627  -11.03942897843   -2.00000000000
     -1.27209449916   -4.44164130627  -11.03942897843   -2.00000000000
      0.00000442396   11.84437302399   -2.54840301833   -2.00000000000
      0.00000442396  -11.84437526371   -2.54840301833   -2.00000000000
     -3.25402271772    8.88327960557   -7.78540932970    4.00000000000
      3.25401657974    8.88327960557   -7.78540932970    4.00000000000
      3.25401657974   -8.88328161021   -7.78540932970    4.00000000000
     -3.25402271772   -8.88328161021   -7.78540932970    4.00000000000
     -6.50803377645   10.36382101999   -1.06892138720    4.00000000000
      6.50804481848   10.36382101999   -1.06892138720    4.00000000000
      6.50804466744  -10.36382264685   -1.06892606631    4.00000000000
     -6.50803392749  -10.36382264685   -1.06892606631    4.00000000000
     -5.23595093628    1.48054576566  -11.03942897843   -2.00000000000
      5.23594479830    1.48054576566  -11.03942897843   -2.00000000000
      5.23594479830   -1.48054777030  -11.03942897843   -2.00000000000
     -5.23595093628   -1.48054777030  -11.03942897843   -2.00000000000
     -3.25402271772    4.44163930162  -11.03942897843    4.00000000000
      3.25401657974    4.44163930162  -11.03942897843    4.00000000000
      3.25401657974   -4.44164130627  -11.03942897843    4.00000000000
     -3.25402271772   -4.44164130627  -11.03942897843    4.00000000000
     -8.48997058501    4.44163930162   -7.78540932970   -2.00000000000
      8.48996444703    4.44163930162   -7.78540932970   -2.00000000000
      8.48996444703   -4.44164130627   -7.78540932970   -2.00000000000
     -8.48997058501   -4.44164130627   -7.78540932970   -2.00000000000
     -3.25401610555   11.84437302349   -1.42716202606    4.00000000000
      3.25402319191   11.84437302349   -1.42716202606    4.00000000000
      3.25402319191  -11.84437526421   -1.42716202606    4.00000000000
     -3.25401610555  -11.84437526421   -1.42716202606    4.00000000000
     -5.20694834074   10.36382593172   -4.51645492343   -2.00000000000
      5.20697130813   10.36382609315   -4.51644946585   -2.00000000000
      5.20697125296  -10.36382813772   -4.51644966155   -2.00000000000
     -5.20694826311  -10.36382823372   -4.51645509582   -2.00000000000
      9.76205587721   -0.00000100232   -7.78540932970    4.00000000000
     -9.76206201519   -0.00000100232   -7.78540932970    4.00000000000
     -0.00000306899    5.92218606960  -11.03942897843    4.00000000000
     -0.00000306899   -5.92218807425  -11.03942897843    4.00000000000
     -6.50804236645    7.40273283758   -7.78540932970    4.00000000000
      6.50803622848    7.40273283758   -7.78540932970    4.00000000000
      6.50803622848   -7.40273484223   -7.78540932970    4.00000000000
     -6.50804236645   -7.40273484223   -7.78540932970    4.00000000000
     -6.50804236645    5.92218606960   -9.05750075987   -2.00000000000
      6.50803622848    5.92218606960   -9.05750075987   -2.00000000000
      6.50803622848   -5.92218807425   -9.05750075987   -2.00000000000
     -6.50804236645   -5.92218807425   -9.05750075987   -2.00000000000
     -0.00005220374   11.84437343371   -4.41288396045    4.00000000000
     -0.00005220374  -11.84437485399   -4.41288396045    4.00000000000
    -11.71498756057    1.48054591013   -4.51645509582   -2.00000000000
     11.71501055042    1.48054600613   -4.51644966155   -2.00000000000
     11.71501060560   -1.48054805070   -4.51644946585   -2.00000000000
    -11.71498763820   -1.48054821213   -4.51645492343   -2.00000000000
     -0.00000306899    8.88327960557   -9.05750075987   -2.00000000000
     -0.00000306899   -8.88328161021   -9.05750075987   -2.00000000000
     -3.25401326317   11.84437350720   -3.23990501486   -2.00000000000
      3.25402603430   11.84437350720   -3.23990501486   -2.00000000000
      3.25402603430  -11.84437478050   -3.23990501486   -2.00000000000
     -3.25401326317  -11.84437478050   -3.23990501486   -2.00000000000
      3.25401657974   -0.00000100232  -12.31152040860   -2.00000000000
     -3.25402271772   -0.00000100232  -12.31152040860   -2.00000000000
     -6.50804236645    8.88327960557   -6.51331789952   -2.00000000000
      6.50803622848    8.88327960557   -6.51331789952   -2.00000000000
      6.50803622848   -8.88328161021   -6.51331789952   -2.00000000000
     -6.50804236645   -8.88328161021   -6.51331789952   -2.00000000000
     -9.76205358197    5.92218600093   -5.78839374873   -2.00000000000
      9.76206431043    5.92218600093   -5.78839374873   -2.00000000000
      9.76206431043   -5.92218814292   -5.78839374873   -2.00000000000
     -9.76205358197   -5.92218814292   -5.78839374873   -2.00000000000
      6.50803622848   -0.00000100232  -11.03942897843    4.00000000000
     -6.50804236645   -0.00000100232  -11.03942897843    4.00000000000
     -9.76206201519    2.96109253364   -7.78540932970    4.00000000000
      9.76205587721    2.96109253364   -7.78540932970    4.00000000000
      9.76205587721   -2.96109453828   -7.78540932970    4.00000000000
     -9.76206201519   -2.96109453828   -7.78540932970    4.00000000000
     -0.00000306899   10.36382637355   -7.78540932970    4.00000000000
     -0.00000306899  -10.36382837819   -7.78540932970    4.00000000000
     -5.23595093628    4.44163930162  -11.03942897843   -2.00000000000
      5.23594479830    4.44163930162  -11.03942897843   -2.00000000000
      5.23594479830   -4.44164130627  -11.03942897843   -2.00000000000
     -5.23595093628   -4.44164130627  -11.03942897843   -2.00000000000
    -13.01607859493    0.00000000000    0.00000000000   -2.00000000000
     13.01607859493    0.00000000000    0.00000000000   -2.00000000000
     -0.00000306899   -0.00000100232  -13.02135719699   -2.00000000000
     -3.25402271772    2.96109253364  -12.31152040860   -2.00000000000
      3.25401657974    2.96109253364  -12.31152040860   -2.00000000000
      3.25401657974   -2.96109453828  -12.31152040860   -2.00000000000
     -3.25402271772   -2.96109453828  -12.31152040860   -2.00000000000
      9.76199144908    7.40273240730   -4.59991327640    4.00000000000
      9.76199125328   -7.40273429615   -4.59991284715    4.00000000000
     -9.76212644332    7.40273240730   -4.59991327640    4.00000000000
     -9.76212663912   -7.40273429615   -4.59991284715    4.00000000000
     -1.98193128755   10.36382637355   -7.78540932970   -2.00000000000
      1.98192514957   10.36382637355   -7.78540932970   -2.00000000000
      1.98192514957  -10.36382837819   -7.78540932970   -2.00000000000
     -1.98193128755  -10.36382837819   -7.78540932970   -2.00000000000
    -13.01607322496    1.48055149700   -1.06892606631    4.00000000000
     13.01608396490    1.48055149700   -1.06892606631    4.00000000000
     13.01608411594   -1.48055312386   -1.06892138720    4.00000000000
    -13.01607307392   -1.48055312386   -1.06892138720    4.00000000000
     -6.50804236645    2.96109253364  -11.03942897843    4.00000000000
      6.50803622848    2.96109253364  -11.03942897843    4.00000000000
      6.50803622848   -2.96109453828  -11.03942897843    4.00000000000
     -6.50804236645   -2.96109453828  -11.03942897843    4.00000000000
     13.01608301889   -0.00000111986   -2.54840301833   -2.00000000000
    -13.01607417097   -0.00000111986   -2.54840301833   -2.00000000000
     -9.76205598036    8.88328009748   -1.42716235830    4.00000000000
      9.76206191204    8.88328009748   -1.42716235830    4.00000000000
      9.76206191204   -8.88328111830   -1.42716235830    4.00000000000
     -9.76205598036   -8.88328111830   -1.42716235830    4.00000000000
    -10.98081324740    7.40273235128   -1.11149163807   -2.00000000000
     10.98081945346    7.40273225558   -1.11149385695   -2.00000000000
     10.98081952031   -7.40273429859   -1.11149503385   -2.00000000000
    -10.98081388475   -7.40273407290   -1.11149295951   -2.00000000000
    -11.71498763820    4.44163885980   -4.51645492343   -2.00000000000
     11.71501060560    4.44163902122   -4.51644946585   -2.00000000000
     11.71501055042   -4.44164106579   -4.51644966155   -2.00000000000
    -11.71498756057   -4.44164116180   -4.51645509582   -2.00000000000
    -13.01607897245    2.96109155033   -0.00000271770   -2.00000000000
     13.01607821741    2.96109155033   -0.00000271770   -2.00000000000
     13.01607821741   -2.96109552160   -0.00000271770   -2.00000000000
    -13.01607897245   -2.96109552160   -0.00000271770   -2.00000000000
     -1.27209449916    7.40273283758  -11.03942897843   -2.00000000000
      1.27208836119    7.40273283758  -11.03942897843   -2.00000000000
      1.27208836119   -7.40273484223  -11.03942897843   -2.00000000000
     -1.27209449916   -7.40273484223  -11.03942897843   -2.00000000000
     -0.00000306899    2.96109253364  -13.02135719699   -2.00000000000
     -0.00000306899   -2.96109453828  -13.02135719699   -2.00000000000
      0.00000536997   13.32492564085   -1.06892606631    4.00000000000
      0.00000552101  -13.32492726771   -1.06892138720    4.00000000000
     -8.54329837208   10.36382691719   -1.11149503385   -2.00000000000
      8.54330400764   10.36382714288   -1.11149295951   -2.00000000000
      8.54330464500  -10.36382886450   -1.11149163807   -2.00000000000
     -8.54329843894  -10.36382896020   -1.11149385695   -2.00000000000
     -6.50803929747   11.84437414385    0.00000000000   -2.00000000000
      6.50803929747   11.84437414385    0.00000000000   -2.00000000000
      6.50803929747  -11.84437414385    0.00000000000   -2.00000000000
     -6.50803929747  -11.84437414385    0.00000000000   -2.00000000000
     -0.00000306899   11.84437314153   -6.51331789952   -2.00000000000
     -0.00000306899  -11.84437514617   -6.51331789952   -2.00000000000
     -2.03525914147   13.32491932750   -1.11149385695   -2.00000000000
      2.03526534753   13.32491942320   -1.11149163807   -2.00000000000
      2.03526471018  -13.32492114482   -1.11149295951   -2.00000000000
     -2.03525907462  -13.32492137051   -1.11149503385   -2.00000000000
     -3.25401428450   11.84437307286   -5.78839374873   -2.00000000000
      3.25402501297   11.84437307286   -5.78839374873   -2.00000000000
      3.25402501297  -11.84437521484   -5.78839374873   -2.00000000000
     -3.25401428450  -11.84437521484   -5.78839374873   -2.00000000000
    -11.03415344536    1.48054576566   -7.78540932970   -2.00000000000
     11.03414730738    1.48054576566   -7.78540932970   -2.00000000000
     11.03414730738   -1.48054777030   -7.78540932970   -2.00000000000
    -11.03415344536   -1.48054777030   -7.78540932970   -2.00000000000
     -7.78013379663    1.48054576566  -11.03942897843   -2.00000000000
      7.78012765865    1.48054576566  -11.03942897843   -2.00000000000
      7.78012765865   -1.48054777030  -11.03942897843   -2.00000000000
     -7.78013379663   -1.48054777030  -11.03942897843   -2.00000000000
    -13.01607409499    2.96109199200   -2.54840438198   -2.00000000000
     13.01608309487    2.96109199200   -2.54840438198   -2.00000000000
     13.01608309487   -2.96109507993   -2.54840438198   -2.00000000000
    -13.01607409499   -2.96109507993   -2.54840438198   -2.00000000000
     -9.76205236604    8.88327917115   -3.23990596489   -2.00000000000
      9.76206552636    8.88327917115   -3.23990596489   -2.00000000000
      9.76206552636   -8.88328204462   -3.23990596489   -2.00000000000
     -9.76205236604   -8.88328204462   -3.23990596489   -2.00000000000
     -3.25402271772    8.88327960557   -9.76733754826   -2.00000000000
      3.25401657974    8.88327960557   -9.76733754826   -2.00000000000
      3.25401657974   -8.88328161021   -9.76733754826   -2.00000000000
     -3.25402271772   -8.88328161021   -9.76733754826   -2.00000000000
     -3.25402271772    7.40273283758  -11.03942897843    4.00000000000
      3.25401657974    7.40273283758  -11.03942897843    4.00000000000
      3.25401657974   -7.40273484223  -11.03942897843    4.00000000000
     -3.25402271772   -7.40273484223  -11.03942897843    4.00000000000
     -8.48997058501    7.40273283758   -7.78540932970   -2.00000000000
      8.48996444703    7.40273283758   -7.78540932970   -2.00000000000
      8.48996444703   -7.40273484223   -7.78540932970   -2.00000000000
     -8.48997058501   -7.40273484223   -7.78540932970   -2.00000000000
     -4.52611414790   10.36382637355   -7.78540932970   -2.00000000000
      4.52610800992   10.36382637355   -7.78540932970   -2.00000000000
      4.52610800992  -10.36382837819   -7.78540932970   -2.00000000000
     -4.52611414790  -10.36382837819   -7.78540932970   -2.00000000000
     -7.80910728680   10.36382609315   -4.51644946585   -2.00000000000
      7.80913025419   10.36382593172   -4.51645492343   -2.00000000000
      7.80913033182  -10.36382823372   -4.51645509582   -2.00000000000
     -7.80910734197  -10.36382813772   -4.51644966155   -2.00000000000
     13.01602639119   -0.00000071014   -4.41288396045    4.00000000000
    -13.01613079868   -0.00000071014   -4.41288396045    4.00000000000
     -6.50803487351   11.84437302399   -2.54840301833   -2.00000000000
      6.50804372142   11.84437302399   -2.54840301833   -2.00000000000
      6.50804372142  -11.84437526371   -2.54840301833   -2.00000000000
     -6.50803487351  -11.84437526371   -2.54840301833   -2.00000000000
    -13.01607307392    4.44163394806   -1.06892138720    4.00000000000
     13.01608411594    4.44163394806   -1.06892138720    4.00000000000
     13.01608396490   -4.44163557493   -1.06892606631    4.00000000000
    -13.01607322496   -4.44163557493   -1.06892606631    4.00000000000
      9.76205587721   -0.00000100232   -9.76733754826   -2.00000000000
     -9.76206201519   -0.00000100232   -9.76733754826   -2.00000000000
     -9.76206201519    5.92218606960   -7.78540932970    4.00000000000
      9.76205587721    5.92218606960   -7.78540932970    4.00000000000
      9.76205587721   -5.92218807425   -7.78540932970    4.00000000000
     -9.76206201519   -5.92218807425   -7.78540932970    4.00000000000
     -3.25402271772    5.92218606960  -12.31152040860   -2.00000000000
      3.25401657974    5.92218606960  -12.31152040860   -2.00000000000
      3.25401657974   -5.92218807425  -12.31152040860   -2.00000000000
     -3.25402271772   -5.92218807425  -12.31152040860   -2.00000000000
     13.01602653134    2.96109301637   -4.41288206312    4.00000000000
     13.01602653134   -2.96109405556   -4.41288206312    4.00000000000
    -13.01613065852    2.96109301637   -4.41288206312    4.00000000000
    -13.01613065852   -2.96109405556   -4.41288206312    4.00000000000
     -4.47277394994   13.32491942320   -1.11149163807   -2.00000000000
      4.47278015600   13.32491932750   -1.11149385695   -2.00000000000
      4.47278022285  -13.32492137051   -1.11149503385   -2.00000000000
     -4.47277458729  -13.32492114482   -1.11149295951   -2.00000000000
     -6.50804236645    5.92218606960  -11.03942897843    4.00000000000
      6.50803622848    5.92218606960  -11.03942897843    4.00000000000
      6.50803622848   -5.92218807425  -11.03942897843    4.00000000000
     -6.50804236645   -5.92218807425  -11.03942897843    4.00000000000
     -9.76206201519    2.96109253364   -9.76733754826   -2.00000000000
      9.76205587721    2.96109253364   -9.76733754826   -2.00000000000
      9.76205587721   -2.96109453828   -9.76733754826   -2.00000000000
     -9.76206201519   -2.96109453828   -9.76733754826   -2.00000000000
     -1.30106804451   13.32492014998   -4.51644966155   -2.00000000000
      1.30109103436   13.32492005398   -4.51645509582   -2.00000000000
      1.30109095673  -13.32492235598   -4.51645492343   -2.00000000000
     -1.30106798933  -13.32492219455   -4.51644946585   -2.00000000000
     -0.00000306899    8.88327960557  -11.03942897843    4.00000000000
     -0.00000306899   -8.88328161021  -11.03942897843    4.00000000000
    -11.03415344536    4.44163930162   -7.78540932970   -2.00000000000
     11.03414730738    4.44163930162   -7.78540932970   -2.00000000000
     11.03414730738   -4.44164130627   -7.78540932970   -2.00000000000
    -11.03415344536   -4.44164130627   -7.78540932970   -2.00000000000
     -6.50809150121   11.84437343371   -4.41288396045    4.00000000000
      6.50798709372   11.84437343371   -4.41288396045    4.00000000000
      6.50798709372  -11.84437485399   -4.41288396045    4.00000000000
     -6.50809150121  -11.84437485399   -4.41288396045    4.00000000000
     -7.78013379663    4.44163930162  -11.03942897843   -2.00000000000
      7.78012765865    4.44163930162  -11.03942897843   -2.00000000000
      7.78012765865   -4.44164130627  -11.03942897843   -2.00000000000
     -7.78013379663   -4.44164130627  -11.03942897843   -2.00000000000
     -6.50804236645    8.88327960557   -9.05750075987   -2.00000000000
      6.50803622848    8.88327960557   -9.05750075987   -2.00000000000
      6.50803622848   -8.88328161021   -9.05750075987   -2.00000000000
     -6.50804236645   -8.88328161021   -9.05750075987   -2.00000000000
     -5.23595093628    7.40273283758  -11.03942897843   -2.00000000000
      5.23594479830    7.40273283758  -11.03942897843   -2.00000000000
      5.23594479830   -7.40273484223  -11.03942897843   -2.00000000000
     -5.23595093628   -7.40273484223  -11.03942897843   -2.00000000000
    -13.01607859493    5.92218707193    0.00000000000   -2.00000000000
     13.01607859493    5.92218707193    0.00000000000   -2.00000000000
     13.01607859493   -5.92218707193    0.00000000000   -2.00000000000
    -13.01607859493   -5.92218707193    0.00000000000   -2.00000000000
     -0.00000306899    5.92218606960  -13.02135719699   -2.00000000000
     -0.00000306899   -5.92218807425  -13.02135719699   -2.00000000000
     -0.00000306899    1.48054576566  -14.29344862716    4.00000000000
     -0.00000306899   -1.48054777030  -14.29344862716    4.00000000000
     -9.76205343167    8.88327982762   -5.78839415273   -2.00000000000
      9.76206446073    8.88327982762   -5.78839415273   -2.00000000000
      9.76206446073   -8.88328138815   -5.78839415273   -2.00000000000
     -9.76205343167   -8.88328138815   -5.78839415273   -2.00000000000
     -3.25408714585   13.32491947923   -4.59991327640    4.00000000000
      3.25395215162   13.32491947923   -4.59991327640    4.00000000000
      3.25395195581  -13.32492136807   -4.59991284715    4.00000000000
     -3.25408734165  -13.32492136807   -4.59991284715    4.00000000000
     -6.50804236645   10.36382637355   -7.78540932970    4.00000000000
      6.50803622848   10.36382637355   -7.78540932970    4.00000000000
      6.50803622848  -10.36382837819   -7.78540932970    4.00000000000
     -6.50804236645  -10.36382837819   -7.78540932970    4.00000000000
     -1.98193128755    1.48054576566  -14.29344862716   -2.00000000000
      1.98192514957    1.48054576566  -14.29344862716   -2.00000000000
      1.98192514957   -1.48054777030  -14.29344862716   -2.00000000000
     -1.98193128755   -1.48054777030  -14.29344862716   -2.00000000000
    -13.01607417097    5.92218595207   -2.54840301833   -2.00000000000
     13.01608301889    5.92218595207   -2.54840301833   -2.00000000000
     13.01608301889   -5.92218819178   -2.54840301833   -2.00000000000
    -13.01607417097   -5.92218819178   -2.54840301833   -2.00000000000
     -3.25402271772   11.84437314153   -7.78540932970    4.00000000000
      3.25401657974   11.84437314153   -7.78540932970    4.00000000000
      3.25401657974  -11.84437514617   -7.78540932970    4.00000000000
     -3.25402271772  -11.84437514617   -7.78540932970    4.00000000000
     13.01607552594   -0.00000100232   -6.51331789952   -2.00000000000
    -13.01608166392   -0.00000100232   -6.51331789952   -2.00000000000
      6.50803622848   -0.00000100232  -13.02135719699   -2.00000000000
     -6.50804236645   -0.00000100232  -13.02135719699   -2.00000000000
    -11.71498756057    7.40273298205   -4.51645509582   -2.00000000000
     11.71501055042    7.40273307806   -4.51644966155   -2.00000000000
     11.71501060560   -7.40273512263   -4.51644946585   -2.00000000000
    -11.71498763820   -7.40273528405   -4.51645492343   -2.00000000000
      3.25401657974   -0.00000100232  -14.29344862716    4.00000000000
     -3.25402271772   -0.00000100232  -14.29344862716    4.00000000000
     -0.00000037752   14.80546569418   -0.00000271770   -2.00000000000
     -0.00000037752  -14.80546966545   -0.00000271770   -2.00000000000
     -9.76206201519    1.48054576566  -11.03942897843    4.00000000000
      9.76205587721    1.48054576566  -11.03942897843    4.00000000000
      9.76205587721   -1.48054777030  -11.03942897843    4.00000000000
     -9.76206201519   -1.48054777030  -11.03942897843    4.00000000000
    -13.01608166392    2.96109253364   -6.51331789952   -2.00000000000
     13.01607552594    2.96109253364   -6.51331789952   -2.00000000000
     13.01607552594   -2.96109453828   -6.51331789952   -2.00000000000
    -13.01608166392   -2.96109453828   -6.51331789952   -2.00000000000
     -6.50804236645    2.96109253364  -13.02135719699   -2.00000000000
      6.50803622848    2.96109253364  -13.02135719699   -2.00000000000
      6.50803622848   -2.96109453828  -13.02135719699   -2.00000000000
     -6.50804236645   -2.96109453828  -13.02135719699   -2.00000000000
     -6.50803392749   13.32492564085   -1.06892606631    4.00000000000
      6.50804466744   13.32492564085   -1.06892606631    4.00000000000
      6.50804481848  -13.32492726771   -1.06892138720    4.00000000000
     -6.50803377645  -13.32492726771   -1.06892138720    4.00000000000
     -0.00000306899   11.84437314153   -9.05750075987   -2.00000000000
     -0.00000306899  -11.84437514617   -9.05750075987   -2.00000000000
     -3.25402271772    2.96109253364  -14.29344862716    4.00000000000
      3.25401657974    2.96109253364  -14.29344862716    4.00000000000
      3.25401657974   -2.96109453828  -14.29344862716    4.00000000000
     -3.25402271772   -2.96109453828  -14.29344862716    4.00000000000
      9.76199125328   10.36382691963   -4.59991284715    4.00000000000
      9.76199144908  -10.36382880847   -4.59991327640    4.00000000000
     -9.76212663912   10.36382691963   -4.59991284715    4.00000000000
     -9.76212644332  -10.36382880847   -4.59991327640    4.00000000000
     13.01602639119    5.92218636178   -4.41288396045    4.00000000000
     13.01602639119   -5.92218778207   -4.41288396045    4.00000000000
    -13.01613079868    5.92218636178   -4.41288396045    4.00000000000
    -13.01613079868   -5.92218778207   -4.41288396045    4.00000000000
     -0.00000306899    4.44163930162  -14.29344862716    4.00000000000
     -0.00000306899   -4.44164130627  -14.29344862716    4.00000000000
     -5.20694826311   13.32492005398   -4.51645509582   -2.00000000000
      5.20697125296   13.32492014998   -4.51644966155   -2.00000000000
      5.20697130813  -13.32492219455   -4.51644946585   -2.00000000000
     -5.20694834074  -13.32492235598   -4.51645492343   -2.00000000000
     -6.50804236645   11.84437314153   -6.51331789952   -2.00000000000
      6.50803622848   11.84437314153   -6.51331789952   -2.00000000000
      6.50803622848  -11.84437514617   -6.51331789952   -2.00000000000
     -6.50804236645  -11.84437514617   -6.51331789952   -2.00000000000
    -13.01607322496    7.40273856892   -1.06892606631    4.00000000000
     13.01608396490    7.40273856892   -1.06892606631    4.00000000000
     13.01608411594   -7.40274019579   -1.06892138720    4.00000000000
    -13.01607307392   -7.40274019579   -1.06892138720    4.00000000000
      0.00000449994   14.80546613585   -2.54840438198   -2.00000000000
      0.00000449994  -14.80546922378   -2.54840438198   -2.00000000000
     -9.76206201519    5.92218606960   -9.76733754826   -2.00000000000
      9.76205587721    5.92218606960   -9.76733754826   -2.00000000000
      9.76205587721   -5.92218807425   -9.76733754826   -2.00000000000
     -9.76206201519   -5.92218807425   -9.76733754826   -2.00000000000
     -4.52611414790    1.48054576566  -14.29344862716   -2.00000000000
      4.52610800992    1.48054576566  -14.29344862716   -2.00000000000
      4.52610800992   -1.48054777030  -14.29344862716   -2.00000000000
     -4.52611414790   -1.48054777030  -14.29344862716   -2.00000000000
    -14.31714663944    1.48054600613   -4.51644966155   -2.00000000000
     14.31716962929    1.48054591013   -4.51645509582   -2.00000000000
     14.31716955166   -1.48054821213   -4.51645492343   -2.00000000000
    -14.31714658426   -1.48054805070   -4.51644946585   -2.00000000000
     -1.98193128755    4.44163930162  -14.29344862716   -2.00000000000
      1.98192514957    4.44163930162  -14.29344862716   -2.00000000000
      1.98192514957   -4.44164130627  -14.29344862716   -2.00000000000
     -1.98193128755   -4.44164130627  -14.29344862716   -2.00000000000
    -10.98081388475   10.36382714288   -1.11149295951   -2.00000000000
     10.98081952031   10.36382691719   -1.11149503385   -2.00000000000
     10.98081945346  -10.36382896020   -1.11149385695   -2.00000000000
    -10.98081324740  -10.36382886450   -1.11149163807   -2.00000000000
    -15.05133773640    1.48054518365   -1.11149385695   -2.00000000000
     15.05134394246    1.48054527935   -1.11149163807   -2.00000000000
     15.05134330511   -1.48054700097   -1.11149295951   -2.00000000000
    -15.05133766955   -1.48054722666   -1.11149503385   -2.00000000000
     -1.27209449916   10.36382637355  -11.03942897843   -2.00000000000
      1.27208836119   10.36382637355  -11.03942897843   -2.00000000000
      1.27208836119  -10.36382837819  -11.03942897843   -2.00000000000
     -1.27209449916  -10.36382837819  -11.03942897843   -2.00000000000
     -3.25401668289   14.80546716940   -1.42716235830    4.00000000000
      3.25402261457   14.80546716940   -1.42716235830    4.00000000000
      3.25402261457  -14.80546819023   -1.42716235830    4.00000000000
     -3.25401668289  -14.80546819023   -1.42716235830    4.00000000000
    -13.01608166392    1.48054576566   -7.78540932970    4.00000000000
     13.01607552594    1.48054576566   -7.78540932970    4.00000000000
     13.01607552594   -1.48054777030   -7.78540932970    4.00000000000
    -13.01608166392   -1.48054777030   -7.78540932970    4.00000000000
     -9.76206201519    8.88327960557   -7.78540932970    4.00000000000
      9.76205587721    8.88327960557   -7.78540932970    4.00000000000
      9.76205587721   -8.88328161021   -7.78540932970    4.00000000000
     -9.76206201519   -8.88328161021   -7.78540932970    4.00000000000
     -9.76206201519    4.44163930162  -11.03942897843    4.00000000000
      9.76205587721    4.44163930162  -11.03942897843    4.00000000000
      9.76205587721   -4.44164130627  -11.03942897843    4.00000000000
     -9.76206201519   -4.44164130627  -11.03942897843    4.00000000000
    -11.03415344536    7.40273283758   -7.78540932970   -2.00000000000
     11.03414730738    7.40273283758   -7.78540932970   -2.00000000000
     11.03414730738   -7.40273484223   -7.78540932970   -2.00000000000
    -11.03415344536   -7.40273484223   -7.78540932970   -2.00000000000
     -7.78013379663    7.40273283758  -11.03942897843   -2.00000000000
      7.78012765865    7.40273283758  -11.03942897843   -2.00000000000
      7.78012765865   -7.40273484223  -11.03942897843   -2.00000000000
     -7.78013379663   -7.40273484223  -11.03942897843   -2.00000000000
     -9.76205540302   11.84437302349   -1.42716202606    4.00000000000
      9.76206248938   11.84437302349   -1.42716202606    4.00000000000
      9.76206248938  -11.84437526421   -1.42716202606    4.00000000000
     -9.76205540302  -11.84437526421   -1.42716202606    4.00000000000
     -0.00000306899   13.32491990951   -7.78540932970    4.00000000000
     -0.00000306899  -13.32492191415   -7.78540932970    4.00000000000
     -0.00005206359   14.80546716022   -4.41288206312    4.00000000000
     -0.00005206359  -14.80546819941   -4.41288206312    4.00000000000
     -3.25402271772   10.36382637355  -11.03942897843    4.00000000000
      3.25401657974   10.36382637355  -11.03942897843    4.00000000000
      3.25401657974  -10.36382837819  -11.03942897843    4.00000000000
     -3.25402271772  -10.36382837819  -11.03942897843    4.00000000000
     -8.48997058501   10.36382637355   -7.78540932970   -2.00000000000
      8.48996444703   10.36382637355   -7.78540932970   -2.00000000000
      8.48996444703  -10.36382837819   -7.78540932970   -2.00000000000
     -8.48997058501  -10.36382837819   -7.78540932970   -2.00000000000
     -3.25401306857   14.80546624308   -3.23990596489   -2.00000000000
      3.25402622890   14.80546624308   -3.23990596489   -2.00000000000
      3.25402622890  -14.80546911655   -3.23990596489   -2.00000000000
     -3.25401306857  -14.80546911655   -3.23990596489   -2.00000000000
     -3.25402271772    8.88327960557  -12.31152040860   -2.00000000000
      3.25401657974    8.88327960557  -12.31152040860   -2.00000000000
      3.25401657974   -8.88328161021  -12.31152040860   -2.00000000000
     -3.25402271772   -8.88328161021  -12.31152040860   -2.00000000000
     -1.98193128755   13.32491990951   -7.78540932970   -2.00000000000
      1.98192514957   13.32491990951   -7.78540932970   -2.00000000000
      1.98192514957  -13.32492191415   -7.78540932970   -2.00000000000
     -1.98193128755  -13.32492191415   -7.78540932970   -2.00000000000
     -0.00000306899   -0.00000100232  -15.56554005734   -2.00000000000
     -6.50804236645    8.88327960557  -11.03942897843    4.00000000000
      6.50803622848    8.88327960557  -11.03942897843    4.00000000000
      6.50803622848   -8.88328161021  -11.03942897843    4.00000000000
     -6.50804236645   -8.88328161021  -11.03942897843    4.00000000000
     -4.52611414790    4.44163930162  -14.29344862716   -2.00000000000
      4.52610800992    4.44163930162  -14.29344862716   -2.00000000000
      4.52610800992   -4.44164130627  -14.29344862716   -2.00000000000
     -4.52611414790   -4.44164130627  -14.29344862716   -2.00000000000
    -14.31714658426    4.44163902122   -4.51644946585   -2.00000000000
     14.31716955166    4.44163885980   -4.51645492343   -2.00000000000
     14.31716962929   -4.44164116180   -4.51645509582   -2.00000000000
    -14.31714663944   -4.44164106579   -4.51644966155   -2.00000000000
     -9.76205256063   11.84437350720   -3.23990501486   -2.00000000000
      9.76206533176   11.84437350720   -3.23990501486   -2.00000000000
      9.76206533176  -11.84437478050   -3.23990501486   -2.00000000000
     -9.76205256063  -11.84437478050   -3.23990501486   -2.00000000000
     -3.25402271772   11.84437314153   -9.76733754826   -2.00000000000
      3.25401657974   11.84437314153   -9.76733754826   -2.00000000000
      3.25401657974  -11.84437514617   -9.76733754826   -2.00000000000
     -3.25402271772  -11.84437514617   -9.76733754826   -2.00000000000
      9.76205587721   -0.00000100232  -12.31152040860   -2.00000000000
     -9.76206201519   -0.00000100232  -12.31152040860   -2.00000000000
    -13.01608166392    5.92218606960   -6.51331789952   -2.00000000000
     13.01607552594    5.92218606960   -6.51331789952   -2.00000000000
     13.01607552594   -5.92218807425   -6.51331789952   -2.00000000000
    -13.01608166392   -5.92218807425   -6.51331789952   -2.00000000000
     -6.50804236645    5.92218606960  -13.02135719699   -2.00000000000
      6.50803622848    5.92218606960  -13.02135719699   -2.00000000000
      6.50803622848   -5.92218807425  -13.02135719699   -2.00000000000
     -6.50804236645   -5.92218807425  -13.02135719699   -2.00000000000
    -15.05133766955    4.44163984526   -1.11149503385   -2.00000000000
     15.05134330511    4.44164007096   -1.11149295951   -2.00000000000
     15.05134394246   -4.44164179257   -1.11149163807   -2.00000000000
    -15.05133773640   -4.44164188827   -1.11149385695   -2.00000000000
    -13.01607897245    8.88327862225   -0.00000271770   -2.00000000000
     13.01607821741    8.88327862225   -0.00000271770   -2.00000000000
     13.01607821741   -8.88328259352   -0.00000271770   -2.00000000000
    -13.01607897245   -8.88328259352   -0.00000271770   -2.00000000000
     -0.00000306899    8.88327960557  -13.02135719699   -2.00000000000
     -0.00000306899   -8.88328161021  -13.02135719699   -2.00000000000
     -6.50804236645    1.48054576566  -14.29344862716    4.00000000000
      6.50803622848    1.48054576566  -14.29344862716    4.00000000000
      6.50803622848   -1.48054777030  -14.29344862716    4.00000000000
     -6.50804236645   -1.48054777030  -14.29344862716    4.00000000000
    -13.01608166392    4.44163930162   -7.78540932970    4.00000000000
     13.01607552594    4.44163930162   -7.78540932970    4.00000000000
     13.01607552594   -4.44164130627   -7.78540932970    4.00000000000
    -13.01608166392   -4.44164130627   -7.78540932970    4.00000000000
     -3.25402271772    5.92218606960  -14.29344862716    4.00000000000
      3.25401657974    5.92218606960  -14.29344862716    4.00000000000
      3.25401657974   -5.92218807425  -14.29344862716    4.00000000000
     -3.25402271772   -5.92218807425  -14.29344862716    4.00000000000
     -0.00000306899    2.96109253364  -15.56554005734   -2.00000000000
     -0.00000306899   -2.96109453828  -15.56554005734   -2.00000000000
     13.01607552594   -0.00000100232   -9.05750075987   -2.00000000000
    -13.01608166392   -0.00000100232   -9.05750075987   -2.00000000000
     -8.54329843894   13.32491932750   -1.11149385695   -2.00000000000
      8.54330464500   13.32491942320   -1.11149163807   -2.00000000000
      8.54330400764  -13.32492114482   -1.11149295951   -2.00000000000
     -8.54329837208  -13.32492137051   -1.11149503385   -2.00000000000
    -13.01607409499    8.88327906392   -2.54840438198   -2.00000000000
     13.01608309487    8.88327906392   -2.54840438198   -2.00000000000
     13.01608309487   -8.88328215185   -2.54840438198   -2.00000000000
    -13.01607409499   -8.88328215185   -2.54840438198   -2.00000000000
     -9.76206201519    2.96109253364  -12.31152040860   -2.00000000000
      9.76205587721    2.96109253364  -12.31152040860   -2.00000000000
      9.76205587721   -2.96109453828  -12.31152040860   -2.00000000000
     -9.76206201519   -2.96109453828  -12.31152040860   -2.00000000000
     -5.23595093628   10.36382637355  -11.03942897843   -2.00000000000
      5.23594479830   10.36382637355  -11.03942897843   -2.00000000000
      5.23594479830  -10.36382837819  -11.03942897843   -2.00000000000
     -5.23595093628  -10.36382837819  -11.03942897843   -2.00000000000
     -4.52611414790   13.32491990951   -7.78540932970   -2.00000000000
      4.52610800992   13.32491990951   -7.78540932970   -2.00000000000
      4.52610800992  -13.32492191415   -7.78540932970   -2.00000000000
     -4.52611414790  -13.32492191415   -7.78540932970   -2.00000000000
     -7.80910734197   13.32492014998   -4.51644966155   -2.00000000000
      7.80913033182   13.32492005398   -4.51645509582   -2.00000000000
      7.80913025419  -13.32492235598   -4.51645492343   -2.00000000000
     -7.80910728680  -13.32492219455   -4.51644946585   -2.00000000000
     -0.00000306899    7.40273283758  -14.29344862716    4.00000000000
     -0.00000306899   -7.40273484223  -14.29344862716    4.00000000000
    -13.01608166392    2.96109253364   -9.05750075987   -2.00000000000
     13.01607552594    2.96109253364   -9.05750075987   -2.00000000000
     13.01607552594   -2.96109453828   -9.05750075987   -2.00000000000
    -13.01608166392   -2.96109453828   -9.05750075987   -2.00000000000
     -6.50803967498   14.80546569418   -0.00000271770   -2.00000000000
      6.50803891995   14.80546569418   -0.00000271770   -2.00000000000
      6.50803891995  -14.80546966545   -0.00000271770   -2.00000000000
     -6.50803967498  -14.80546966545   -0.00000271770   -2.00000000000
     -0.00000306899   14.80546667749   -6.51331789952   -2.00000000000
     -0.00000306899  -14.80546868213   -6.51331789952   -2.00000000000
    -11.74399023374    1.48054576566  -11.03942897843   -2.00000000000
     11.74398409577    1.48054576566  -11.03942897843   -2.00000000000
     11.74398409577   -1.48054777030  -11.03942897843   -2.00000000000
    -11.74399023374   -1.48054777030  -11.03942897843   -2.00000000000
     -0.00000306899   11.84437314153  -11.03942897843    4.00000000000
     -0.00000306899  -11.84437514617  -11.03942897843    4.00000000000
     -1.98193128755    7.40273283758  -14.29344862716   -2.00000000000
      1.98192514957    7.40273283758  -14.29344862716   -2.00000000000
      1.98192514957   -7.40273484223  -14.29344862716   -2.00000000000
     -1.98193128755   -7.40273484223  -14.29344862716   -2.00000000000
     -3.25401413420   14.80546689955   -5.78839415273   -2.00000000000
      3.25402516327   14.80546689955   -5.78839415273   -2.00000000000
      3.25402516327  -14.80546846008   -5.78839415273   -2.00000000000
     -3.25401413420  -14.80546846008   -5.78839415273   -2.00000000000
     -6.50804236645   11.84437314153   -9.05750075987   -2.00000000000
      6.50803622848   11.84437314153   -9.05750075987   -2.00000000000
      6.50803622848  -11.84437514617   -9.05750075987   -2.00000000000
     -6.50804236645  -11.84437514617   -9.05750075987   -2.00000000000
    -11.71498763820   10.36382593172   -4.51645492343   -2.00000000000
     11.71501060560   10.36382609315   -4.51644946585   -2.00000000000
     11.71501055042  -10.36382813772   -4.51644966155   -2.00000000000
    -11.71498756057  -10.36382823372   -4.51645509582   -2.00000000000
      0.00000552101   16.28600809192   -1.06892138720    4.00000000000
      0.00000536997  -16.28600971878   -1.06892606631    4.00000000000
     -6.50804236645    4.44163930162  -14.29344862716    4.00000000000
      6.50803622848    4.44163930162  -14.29344862716    4.00000000000
      6.50803622848   -4.44164130627  -14.29344862716    4.00000000000
     -6.50804236645   -4.44164130627  -14.29344862716    4.00000000000
     16.27010178684   -0.00000112036   -1.42716202606    4.00000000000
    -16.27009470048   -0.00000112036   -1.42716202606    4.00000000000
     13.01602653134    8.88328008829   -4.41288206312    4.00000000000
     13.01602653134   -8.88328112748   -4.41288206312    4.00000000000
    -13.01613065852    8.88328008829   -4.41288206312    4.00000000000
    -13.01613065852   -8.88328112748   -4.41288206312    4.00000000000
     -6.50803479753   14.80546613585   -2.54840438198   -2.00000000000
      6.50804379741   14.80546613585   -2.54840438198   -2.00000000000
      6.50804379741  -14.80546922378   -2.54840438198   -2.00000000000
     -6.50803479753  -14.80546922378   -2.54840438198   -2.00000000000
     -9.76205358197   11.84437307286   -5.78839374873   -2.00000000000
      9.76206431043   11.84437307286   -5.78839374873   -2.00000000000
      9.76206431043  -11.84437521484   -5.78839374873   -2.00000000000
     -9.76205358197  -11.84437521484   -5.78839374873   -2.00000000000
     -9.76206201519    8.88327960557   -9.76733754826   -2.00000000000
      9.76205587721    8.88327960557   -9.76733754826   -2.00000000000
      9.76205587721   -8.88328161021   -9.76733754826   -2.00000000000
     -9.76206201519   -8.88328161021   -9.76733754826   -2.00000000000
     -2.03525907462   16.28601398911   -1.11149503385   -2.00000000000
      2.03526471018   16.28601421481   -1.11149295951   -2.00000000000
      2.03526534753  -16.28601593642   -1.11149163807   -2.00000000000
     -2.03525914147  -16.28601603212   -1.11149385695   -2.00000000000
     -9.76206201519    7.40273283758  -11.03942897843    4.00000000000
      9.76205587721    7.40273283758  -11.03942897843    4.00000000000
      9.76205587721   -7.40273484223  -11.03942897843    4.00000000000
     -9.76206201519   -7.40273484223  -11.03942897843    4.00000000000
     16.27010462923   -0.00000063665   -3.23990501486   -2.00000000000
    -16.27009185810   -0.00000063665   -3.23990501486   -2.00000000000
      3.25401657974   -0.00000100232  -16.27537684572   -2.00000000000
     -3.25402271772   -0.00000100232  -16.27537684572   -2.00000000000
    -16.27009527782    2.96109302555   -1.42716235830    4.00000000000
     16.27010120950    2.96109302555   -1.42716235830    4.00000000000
     16.27010120950   -2.96109404638   -1.42716235830    4.00000000000
    -16.27009527782   -2.96109404638   -1.42716235830    4.00000000000
     -0.00000306899    5.92218606960  -15.56554005734   -2.00000000000
     -0.00000306899   -5.92218807425  -15.56554005734   -2.00000000000
    -13.01607307392   10.36382101999   -1.06892138720    4.00000000000
     13.01608411594   10.36382101999   -1.06892138720    4.00000000000
     13.01608396490  -10.36382264685   -1.06892606631    4.00000000000
    -13.01607322496  -10.36382264685   -1.06892606631    4.00000000000
     -8.48997058501    1.48054576566  -14.29344862716   -2.00000000000
      8.48996444703    1.48054576566  -14.29344862716   -2.00000000000
      8.48996444703   -1.48054777030  -14.29344862716   -2.00000000000
     -8.48997058501   -1.48054777030  -14.29344862716   -2.00000000000
    -11.74399023374    4.44163930162  -11.03942897843   -2.00000000000
     11.74398409577    4.44163930162  -11.03942897843   -2.00000000000
     11.74398409577   -4.44164130627  -11.03942897843   -2.00000000000
    -11.74399023374   -4.44164130627  -11.03942897843   -2.00000000000
     -4.52611414790    7.40273283758  -14.29344862716   -2.00000000000
      4.52610800992    7.40273283758  -14.29344862716   -2.00000000000
      4.52610800992   -7.40273484223  -14.29344862716   -2.00000000000
     -4.52611414790   -7.40273484223  -14.29344862716   -2.00000000000
    -14.31714663944    7.40273307806   -4.51644966155   -2.00000000000
     14.31716962929    7.40273298205   -4.51645509582   -2.00000000000
     14.31716955166   -7.40273528405   -4.51645492343   -2.00000000000
    -14.31714658426   -7.40273512263   -4.51644946585   -2.00000000000
     -6.50804236645   13.32491990951   -7.78540932970    4.00000000000
      6.50803622848   13.32491990951   -7.78540932970    4.00000000000
      6.50803622848  -13.32492191415   -7.78540932970    4.00000000000
     -6.50804236645  -13.32492191415   -7.78540932970    4.00000000000
     -6.50809136106   14.80546716022   -4.41288206312    4.00000000000
      6.50798723387   14.80546716022   -4.41288206312    4.00000000000
      6.50798723387  -14.80546819941   -4.41288206312    4.00000000000
     -6.50809136106  -14.80546819941   -4.41288206312    4.00000000000
     -9.76206201519    5.92218606960  -12.31152040860   -2.00000000000
      9.76205587721    5.92218606960  -12.31152040860   -2.00000000000
      9.76205587721   -5.92218807425  -12.31152040860   -2.00000000000
     -9.76206201519   -5.92218807425  -12.31152040860   -2.00000000000
    -15.05133773640    7.40273225558   -1.11149385695   -2.00000000000
     15.05134394246    7.40273235128   -1.11149163807   -2.00000000000
     15.05134330511   -7.40273407290   -1.11149295951   -2.00000000000
    -15.05133766955   -7.40273429859   -1.11149503385   -2.00000000000
    -16.27009166350    2.96109209923   -3.23990596489   -2.00000000000
     16.27010482383    2.96109209923   -3.23990596489   -2.00000000000
     16.27010482383   -2.96109497270   -3.23990596489   -2.00000000000
    -16.27009166350   -2.96109497270   -3.23990596489   -2.00000000000
     -3.25402271772    2.96109253364  -16.27537684572   -2.00000000000
      3.25401657974    2.96109253364  -16.27537684572   -2.00000000000
      3.25401657974   -2.96109453828  -16.27537684572   -2.00000000000
     -3.25402271772   -2.96109453828  -16.27537684572   -2.00000000000
      6.50803622848   -0.00000100232  -15.56554005734   -2.00000000000
     -6.50804236645   -0.00000100232  -15.56554005734   -2.00000000000
    -13.01608166392    7.40273283758   -7.78540932970    4.00000000000
     13.01607552594    7.40273283758   -7.78540932970    4.00000000000
     13.01607552594   -7.40273484223   -7.78540932970    4.00000000000
    -13.01608166392   -7.40273484223   -7.78540932970    4.00000000000
     -4.47277458729   16.28601421481   -1.11149295951   -2.00000000000
      4.47278022285   16.28601398911   -1.11149503385   -2.00000000000
      4.47278015600  -16.28601603212   -1.11149385695   -2.00000000000
     -4.47277394994  -16.28601593642   -1.11149163807   -2.00000000000
    -13.01608166392    5.92218606960   -9.05750075987   -2.00000000000
     13.01607552594    5.92218606960   -9.05750075987   -2.00000000000
     13.01607552594   -5.92218807425   -9.05750075987   -2.00000000000
    -13.01608166392   -5.92218807425   -9.05750075987   -2.00000000000
     -1.30106798933   16.28601316507   -4.51644946585   -2.00000000000
      1.30109095673   16.28601300365   -4.51645492343   -2.00000000000
      1.30109103436  -16.28601530565   -4.51645509582   -2.00000000000
     -1.30106804451  -16.28601520964   -4.51644966155   -2.00000000000
    -14.99800988248    1.48054576566   -7.78540932970   -2.00000000000
     14.99800374450    1.48054576566   -7.78540932970   -2.00000000000
     14.99800374450   -1.48054777030   -7.78540932970   -2.00000000000
    -14.99800988248   -1.48054777030   -7.78540932970   -2.00000000000
     16.27003074655    1.48054533538   -4.59991327640    4.00000000000
     16.27003055074   -1.48054722422   -4.59991284715    4.00000000000
    -16.27016574078    1.48054533538   -4.59991327640    4.00000000000
    -16.27016593658   -1.48054722422   -4.59991284715    4.00000000000
    -11.03415344536   10.36382637355   -7.78540932970   -2.00000000000
     11.03414730738   10.36382637355   -7.78540932970   -2.00000000000
     11.03414730738  -10.36382837819   -7.78540932970   -2.00000000000
[...]
 Number of occupied orbitals:    48
 Number of virtual  orbitals:   596
 Number of Cholesky vectors:      8
 Number of NAFs:               1099  (35.36%)
 MP2 energy in ED [au]:          -0.089657214232
 CPU time [min]:   219.699                   Wall time [min]:     2.954
 
 MO:    10
 Number of atoms in domain:      12
 Number of atomic orbitals:     664
 Number of atoms for local DF:   12
 Number of fitting functions:  3108 (100.00%)
 Number of occupied orbitals:    48
 Number of virtual  orbitals:   596
 Number of Cholesky vectors:      8
 Number of NAFs:               1099  (35.36%)
 MP2 energy in ED [au]:          -0.089657205057
 CPU time [min]:   241.699                   Wall time [min]:     3.248
 
 MO:    11
 Number of atoms in domain:      12
 Number of atomic orbitals:     664
 Number of atoms for local DF:   12
 Number of fitting functions:  3108 (100.00%)
 Number of occupied orbitals:    48
 Number of virtual  orbitals:   596
 Number of Cholesky vectors:      8
 Number of NAFs:               1099  (35.36%)
 MP2 energy in ED [au]:          -0.089266783396
 CPU time [min]:   263.598                   Wall time [min]:     3.540
 
 MO:    12
 Number of atoms in domain:      12
 Number of atomic orbitals:     664
 Number of atoms for local DF:   12
 Number of fitting functions:  3108 (100.00%)
 Number of occupied orbitals:    48
 Number of virtual  orbitals:   596
 Number of Cholesky vectors:      8
 Number of NAFs:               1099  (35.36%)
 MP2 energy in ED [au]:          -0.089266783198
 CPU time [min]:   285.589                   Wall time [min]:     3.833
 
 MO:    13
 Number of atoms in domain:      12
 Number of atomic orbitals:     664
 Number of atoms for local DF:   12
 Number of fitting functions:  3108 (100.00%)
 Number of occupied orbitals:    48
 Number of virtual  orbitals:   596
 Number of Cholesky vectors:      8
 Number of NAFs:               1099  (35.36%)
 MP2 energy in ED [au]:          -0.089299216962
 CPU time [min]:   307.591                   Wall time [min]:     4.126
 
 MO:    14
 Number of atoms in domain:      12
 Number of atomic orbitals:     664
 Number of atoms for local DF:   12
 Number of fitting functions:  3108 (100.00%)
 Number of occupied orbitals:    48
 Number of virtual  orbitals:   596
 Number of Cholesky vectors:      8
 Number of NAFs:               1099  (35.36%)
 MP2 energy in ED [au]:          -0.089266317448
 CPU time [min]:   329.442                   Wall time [min]:     4.418
 
 MO:    15
 Number of atoms in domain:      12
 Number of atomic orbitals:     664
 Number of atoms for local DF:   12
 Number of fitting functions:  3108 (100.00%)
 Number of occupied orbitals:    48
 Number of virtual  orbitals:   596
 Number of Cholesky vectors:      8
 Number of NAFs:               1099  (35.36%)
 MP2 energy in ED [au]:          -0.089266330841
 CPU time [min]:   351.392                   Wall time [min]:     4.710
 
 MO:    16
 Number of atoms in domain:      12
 Number of atomic orbitals:     664
 Number of atoms for local DF:   12
 Number of fitting functions:  3108 (100.00%)
 Number of occupied orbitals:    48
 Number of virtual  orbitals:   596
 Number of Cholesky vectors:      8
 Number of NAFs:               1099  (35.36%)
 MP2 energy in ED [au]:          -0.089299216487
 CPU time [min]:   373.346                   Wall time [min]:     5.003
 
 MO:    17
 Number of atoms in domain:      12
 Number of atomic orbitals:     664
 Number of atoms for local DF:   12
 Number of fitting functions:  3108 (100.00%)
 Number of occupied orbitals:    48
 Number of virtual  orbitals:   596
 Number of Cholesky vectors:      8
 Number of NAFs:               1099  (35.36%)
 MP2 energy in ED [au]:          -0.109073560074
 CPU time [min]:   395.243                   Wall time [min]:     5.295
 
 MO:    18
 Number of atoms in domain:      12
 Number of atomic orbitals:     664
 Number of atoms for local DF:   12
 Number of fitting functions:  3108 (100.00%)
 Number of occupied orbitals:    48
 Number of virtual  orbitals:   596
 Number of Cholesky vectors:      8
 Number of NAFs:               1099  (35.36%)
 MP2 energy in ED [au]:          -0.087921306906
 CPU time [min]:   417.151                   Wall time [min]:     5.587
 
 MO:    19
 Number of atoms in domain:      12
 Number of atomic orbitals:     664
 Number of atoms for local DF:   12
 Number of fitting functions:  3108 (100.00%)
 Number of occupied orbitals:    48
 Number of virtual  orbitals:   596
 Number of Cholesky vectors:      8
 Number of NAFs:               1099  (35.36%)
 MP2 energy in ED [au]:          -0.086770883980
 CPU time [min]:   439.104                   Wall time [min]:     5.879
 
 MO:    20
 Number of atoms in domain:      12
 Number of atomic orbitals:     664
 Number of atoms for local DF:   12
 Number of fitting functions:  3108 (100.00%)
 Number of occupied orbitals:    48
 Number of virtual  orbitals:   596
 Number of Cholesky vectors:      8
 Number of NAFs:               1099  (35.36%)
 MP2 energy in ED [au]:          -0.089473309503
 CPU time [min]:   461.085                   Wall time [min]:     6.173
 
 MO:    21
 Number of atoms in domain:      12
 Number of atomic orbitals:     664
 Number of atoms for local DF:   12
 Number of fitting functions:  3108 (100.00%)
 Number of occupied orbitals:    47
 Number of virtual  orbitals:   596
 Number of Cholesky vectors:      8
 Number of NAFs:               1091  (35.10%)
 MP2 energy in ED [au]:          -0.083924447863
 CPU time [min]:   482.987                   Wall time [min]:     6.464
 
 MO:    22
 Number of atoms in domain:      12
 Number of atomic orbitals:     664
 Number of atoms for local DF:   12
 Number of fitting functions:  3108 (100.00%)
 Number of occupied orbitals:    48
 Number of virtual  orbitals:   596
 Number of Cholesky vectors:      8
 Number of NAFs:               1099  (35.36%)
 MP2 energy in ED [au]:          -0.087927247362
 CPU time [min]:   504.924                   Wall time [min]:     6.757
 
 MO:    23
 Number of atoms in domain:      12
 Number of atomic orbitals:     664
 Number of atoms for local DF:   12
 Number of fitting functions:  3108 (100.00%)
 Number of occupied orbitals:    48
 Number of virtual  orbitals:   596
 Number of Cholesky vectors:      8
 Number of NAFs:               1099  (35.36%)
 MP2 energy in ED [au]:          -0.123312414528
 CPU time [min]:   526.829                   Wall time [min]:     7.049
 
 MO:    24
 Number of atoms in domain:      12
 Number of atomic orbitals:     664
 Number of atoms for local DF:   12
 Number of fitting functions:  3108 (100.00%)
 Number of occupied orbitals:    48
 Number of virtual  orbitals:   596
 Number of Cholesky vectors:      8
 Number of NAFs:               1099  (35.36%)
 MP2 energy in ED [au]:          -0.092022926451
 CPU time [min]:   548.740                   Wall time [min]:     7.341
 
 MO:    25
 Number of atoms in domain:      12
 Number of atomic orbitals:     664
 Number of atoms for local DF:   12
 Number of fitting functions:  3108 (100.00%)
 Number of occupied orbitals:    48
 Number of virtual  orbitals:   596
 Number of Cholesky vectors:      8
 Number of NAFs:               1099  (35.36%)
 MP2 energy in ED [au]:          -0.092022404950
 CPU time [min]:   570.676                   Wall time [min]:     7.633
 
 MO:    26
 Number of atoms in domain:      12
 Number of atomic orbitals:     664
 Number of atoms for local DF:   12
 Number of fitting functions:  3108 (100.00%)
 Number of occupied orbitals:    47
 Number of virtual  orbitals:   596
 Number of Cholesky vectors:      8
 Number of NAFs:               1091  (35.10%)
 MP2 energy in ED [au]:          -0.083923357510
 CPU time [min]:   592.482                   Wall time [min]:     7.924
 
 MO:    27
 Number of atoms in domain:      12
 Number of atomic orbitals:     664
 Number of atoms for local DF:   12
 Number of fitting functions:  3108 (100.00%)
 Number of occupied orbitals:    48
 Number of virtual  orbitals:   596
 Number of Cholesky vectors:      8
 Number of NAFs:               1099  (35.36%)
 MP2 energy in ED [au]:          -0.121751642246
 CPU time [min]:   614.402                   Wall time [min]:     8.216
 
 MO:    28
 Number of atoms in domain:      12
 Number of atomic orbitals:     664
 Number of atoms for local DF:   12
 Number of fitting functions:  3108 (100.00%)
 Number of occupied orbitals:    48
 Number of virtual  orbitals:   596
 Number of Cholesky vectors:      8
 Number of NAFs:               1099  (35.36%)
 MP2 energy in ED [au]:          -0.111355498975
 CPU time [min]:   636.310                   Wall time [min]:     8.508
 
 MO:    29
 Number of atoms in domain:      12
 Number of atomic orbitals:     664
 Number of atoms for local DF:   12
 Number of fitting functions:  3108 (100.00%)
 Number of occupied orbitals:    48
 Number of virtual  orbitals:   596
 Number of Cholesky vectors:      8
 Number of NAFs:               1099  (35.36%)
 MP2 energy in ED [au]:          -0.111358010023
 CPU time [min]:   658.230                   Wall time [min]:     8.800
 
 MO:    30
 Number of atoms in domain:      12
 Number of atomic orbitals:     664
 Number of atoms for local DF:   12
 Number of fitting functions:  3108 (100.00%)
 Number of occupied orbitals:    47
 Number of virtual  orbitals:   596
 Number of Cholesky vectors:      8
 Number of NAFs:               1091  (35.10%)
 MP2 energy in ED [au]:          -0.083923295724
 CPU time [min]:   680.048                   Wall time [min]:     9.091
 
 MO:    31
 Number of atoms in domain:      12
 Number of atomic orbitals:     664
 Number of atoms for local DF:   12
 Number of fitting functions:  3108 (100.00%)
 Number of occupied orbitals:    48
 Number of virtual  orbitals:   596
 Number of Cholesky vectors:      8
 Number of NAFs:               1099  (35.36%)
 MP2 energy in ED [au]:          -0.121751779565
 CPU time [min]:   701.920                   Wall time [min]:     9.383
 
 MO:    32
 Number of atoms in domain:      12
 Number of atomic orbitals:     664
 Number of atoms for local DF:   12
 Number of fitting functions:  3108 (100.00%)
 Number of occupied orbitals:    48
 Number of virtual  orbitals:   596
 Number of Cholesky vectors:      8
 Number of NAFs:               1099  (35.36%)
 MP2 energy in ED [au]:          -0.082782057457
 CPU time [min]:   723.831                   Wall time [min]:     9.675
 
 MO:    33
 Number of atoms in domain:      12
 Number of atomic orbitals:     664
 Number of atoms for local DF:   12
 Number of fitting functions:  3108 (100.00%)
 Number of occupied orbitals:    48
 Number of virtual  orbitals:   596
 Number of Cholesky vectors:      8
 Number of NAFs:               1099  (35.36%)
 MP2 energy in ED [au]:          -0.082785739752
 CPU time [min]:   745.880                   Wall time [min]:     9.969
 
 MO:    34
 Number of atoms in domain:      12
 Number of atomic orbitals:     664
 Number of atoms for local DF:   12
 Number of fitting functions:  3108 (100.00%)
 Number of occupied orbitals:    48
 Number of virtual  orbitals:   596
 Number of Cholesky vectors:      8
 Number of NAFs:               1099  (35.36%)
 MP2 energy in ED [au]:          -0.082782052784
 CPU time [min]:   767.762                   Wall time [min]:    10.260
 
 MO:    35
 Number of atoms in domain:      12
 Number of atomic orbitals:     664
 Number of atoms for local DF:   12
 Number of fitting functions:  3108 (100.00%)
 Number of occupied orbitals:    48
 Number of virtual  orbitals:   596
 Number of Cholesky vectors:      8
 Number of NAFs:               1099  (35.36%)
 MP2 energy in ED [au]:          -0.082785730339
 CPU time [min]:   789.668                   Wall time [min]:    10.553
 
 MO:    36
 Number of atoms in domain:      12
 Number of atomic orbitals:     664
 Number of atoms for local DF:   12
 Number of fitting functions:  3108 (100.00%)
 Number of occupied orbitals:    47
 Number of virtual  orbitals:   596
 Number of Cholesky vectors:      8
 Number of NAFs:               1091  (35.10%)
 MP2 energy in ED [au]:          -0.083924382898
 CPU time [min]:   811.357                   Wall time [min]:    10.841
 
 MO:    37
 Number of atoms in domain:      12
 Number of atomic orbitals:     664
 Number of atoms for local DF:   12
 Number of fitting functions:  3108 (100.00%)
 Number of occupied orbitals:    48
 Number of virtual  orbitals:   596
 Number of Cholesky vectors:      8
 Number of NAFs:               1099  (35.36%)
 MP2 energy in ED [au]:          -0.080443198246
 CPU time [min]:   833.339                   Wall time [min]:    11.135
 
 MO:    38
 Number of atoms in domain:      12
 Number of atomic orbitals:     664
 Number of atoms for local DF:   12
 Number of fitting functions:  3108 (100.00%)
 Number of occupied orbitals:    48
 Number of virtual  orbitals:   596
 Number of Cholesky vectors:      8
 Number of NAFs:               1099  (35.36%)
 MP2 energy in ED [au]:          -0.082223420279
 CPU time [min]:   855.230                   Wall time [min]:    11.426
 
 MO:    39
 Number of atoms in domain:      12
 Number of atomic orbitals:     664
 Number of atoms for local DF:   12
 Number of fitting functions:  3108 (100.00%)
 Number of occupied orbitals:    48
 Number of virtual  orbitals:   596
 Number of Cholesky vectors:      8
 Number of NAFs:               1099  (35.36%)
 MP2 energy in ED [au]:          -0.082223396247
 CPU time [min]:   877.181                   Wall time [min]:    11.719
 
 MO:    40
 Number of atoms in domain:      12
 Number of atomic orbitals:     664
 Number of atoms for local DF:   12
 Number of fitting functions:  3108 (100.00%)
 Number of occupied orbitals:    48
 Number of virtual  orbitals:   596
 Number of Cholesky vectors:      8
 Number of NAFs:               1099  (35.36%)
 MP2 energy in ED [au]:          -0.082222068022
 CPU time [min]:   899.071                   Wall time [min]:    12.011
 
 MO:    41
 Number of atoms in domain:      12
 Number of atomic orbitals:     664
 Number of atoms for local DF:   12
 Number of fitting functions:  3108 (100.00%)
 Number of occupied orbitals:    48
 Number of virtual  orbitals:   596
 Number of Cholesky vectors:      8
 Number of NAFs:               1099  (35.36%)
 MP2 energy in ED [au]:          -0.082222059120
 CPU time [min]:   921.008                   Wall time [min]:    12.303
 
 MO:    42
 Number of atoms in domain:      12
 Number of atomic orbitals:     664
 Number of atoms for local DF:   12
 Number of fitting functions:  3108 (100.00%)
 Number of occupied orbitals:    48
 Number of virtual  orbitals:   596
 Number of Cholesky vectors:      8
 Number of NAFs:               1099  (35.36%)
 MP2 energy in ED [au]:          -0.101819283325
 CPU time [min]:   942.921                   Wall time [min]:    12.595
 
 MO:    43
 Number of atoms in domain:      12
 Number of atomic orbitals:     664
 Number of atoms for local DF:   12
 Number of fitting functions:  3108 (100.00%)
 Number of occupied orbitals:    48
 Number of virtual  orbitals:   596
 Number of Cholesky vectors:      8
 Number of NAFs:               1099  (35.36%)
 MP2 energy in ED [au]:          -0.097525197069
 CPU time [min]:   964.834                   Wall time [min]:    12.888
 
 MO:    44
 Number of atoms in domain:      12
 Number of atomic orbitals:     664
 Number of atoms for local DF:   12
 Number of fitting functions:  3108 (100.00%)
 Number of occupied orbitals:    48
 Number of virtual  orbitals:   596
 Number of Cholesky vectors:      8
 Number of NAFs:               1099  (35.36%)
 MP2 energy in ED [au]:          -0.086809130876
 CPU time [min]:   986.810                   Wall time [min]:    13.181
 
 MO:    45
 Number of atoms in domain:      12
 Number of atomic orbitals:     664
 Number of atoms for local DF:   12
 Number of fitting functions:  3108 (100.00%)
 Number of occupied orbitals:    48
 Number of virtual  orbitals:   596
 Number of Cholesky vectors:      8
 Number of NAFs:               1099  (35.36%)
 MP2 energy in ED [au]:          -0.111231760317
 CPU time [min]:  1008.692                   Wall time [min]:    13.472
 
 MO:    46
 Number of atoms in domain:      12
 Number of atomic orbitals:     664
 Number of atoms for local DF:   12
 Number of fitting functions:  3108 (100.00%)
 Number of occupied orbitals:    48
 Number of virtual  orbitals:   596
 Number of Cholesky vectors:      8
 Number of NAFs:               1099  (35.36%)
 MP2 energy in ED [au]:          -0.089473406055
 CPU time [min]:  1030.715                   Wall time [min]:    13.766
 
 MO:    47
 Number of atoms in domain:      12
 Number of atomic orbitals:     664
 Number of atoms for local DF:   12
 Number of fitting functions:  3108 (100.00%)
 Number of occupied orbitals:    48
 Number of virtual  orbitals:   596
 Number of Cholesky vectors:      8
 Number of NAFs:               1099  (35.36%)
 MP2 energy in ED [au]:          -0.086809103876
 CPU time [min]:  1052.587                   Wall time [min]:    14.058
 
 MO:    48
 Number of atoms in domain:      12
 Number of atomic orbitals:     664
 Number of atoms for local DF:   12
 Number of fitting functions:  3108 (100.00%)
 Number of occupied orbitals:    48
 Number of virtual  orbitals:   596
 Number of Cholesky vectors:      8
 Number of NAFs:               1099  (35.36%)
 MP2 energy in ED [au]:          -0.097525182411
 CPU time [min]:  1074.506                   Wall time [min]:    14.350
 
 **********************************************************************
 Dimensions of the extended domains:    Minimum / Average / Maximum
 
 Number of atoms in domain:                  12      12.0        12
 Number of atomic orbitals:                 664     664.0       664
 Number of fitting functions:              3108    3108.0      3108
 Number of occupied localized MOs:           47      47.9        48
 Number of PAOs:                            596     596.0       596
 Number of NAFs:                           1091    1098.3      1099
 
 **********************************************************************
 Final local correlation results
 
 Sum of pair energies [au]:                    -0.000005569169    (0.000%)
 Sum of energy corrections [au]:                0.000000000000    (0.000%)
 Sum of LMO contributions [au]:                -4.419990083917
 
 Reference energy [au]:                    -23349.947072644361
 MP2 contribution [au]:                        -1.193398826333
 B2PLYP energy [au]:                       -23351.140471470695
 
 **********************************************************************
  Time of manipulations in the EDs:      max CPU/Wall [s]  all CPU/Wall [min]
 
 PD construction & multipole pair E    1332.85    19.02    22.21     0.32
 Construct MO basis of the ED            11.57     0.16     6.96     0.09
 (mu,nu|P) evaluation & trf 2 (ai|P)   1198.26    16.15   946.00    12.61
 Assembly of (Ia|jb)                     10.54     0.14     7.73     0.10
 Build W_PQ (Jai or Jpi part)            16.16     0.23    11.37     0.15
 Diagonalize W_PQ                        55.33     0.73    41.91     0.55
 Transform (ai|P) to the NAF basis       16.53     0.24    11.65     0.17
 Evaluate MP2 energy of the ED           25.43     0.34    17.98     0.24
 Total of the above for all EDs        1333.83    17.98  1043.59    13.92
 
 **********************************************************************
 Maximum memory requirement [MB]:       
 
 PD construction & multipole pair E         66.1
 AO integral evaluation in the EDs       24221.6
 (mu,nu|P) evaluation & trf 2 (aI|P)     27975.9
 NAF construction and trf to NAFs         1247.6
 Evaluate MP2 energy in the EDs            427.5
 
 ************************ 2022-02-09 10:31:11 *************************
                      Normal termination of mrcc.
 **********************************************************************
