
                                 *****************
                                 * O   R   C   A *
                                 *****************

                                            #,                                       
                                            ###                                      
                                            ####                                     
                                            #####                                    
                                            ######                                   
                                           ########,                                 
                                     ,,################,,,,,                         
                               ,,#################################,,                 
                          ,,##########################################,,             
                       ,#########################################, ''#####,          
                    ,#############################################,,   '####,        
                  ,##################################################,,,,####,       
                ,###########''''           ''''###############################       
              ,#####''   ,,,,##########,,,,          '''####'''          '####       
            ,##' ,,,,###########################,,,                        '##       
           ' ,,###''''                  '''############,,,                           
         ,,##''                                '''############,,,,        ,,,,,,###''
      ,#''                                            '''#######################'''  
     '                                                          ''''####''''         
             ,#######,   #######,   ,#######,      ##                                
            ,#'     '#,  ##    ##  ,#'     '#,    #''#        ######   ,####,        
            ##       ##  ##   ,#'  ##            #'  '#       #        #'  '#        
            ##       ##  #######   ##           ,######,      #####,   #    #        
            '#,     ,#'  ##    ##  '#,     ,#' ,#      #,         ##   #,  ,#        
             '#######'   ##     ##  '#######'  #'      '#     #####' # '####'        



                  #######################################################
                  #                        -***-                        #
                  #          Department of theory and spectroscopy      #
                  #    Directorship and core code : Frank Neese         #
                  #        Max Planck Institute fuer Kohlenforschung    #
                  #                Kaiser Wilhelm Platz 1               #
                  #                 D-45470 Muelheim/Ruhr               #
                  #                      Germany                        #
                  #                                                     #
                  #                  All rights reserved                #
                  #                        -***-                        #
                  #######################################################


                         Program Version 5.0.1 -  RELEASE  -


 With contributions from (in alphabetic order):
   Daniel Aravena         : Magnetic Suceptibility
   Michael Atanasov       : Ab Initio Ligand Field Theory (pilot matlab implementation)
   Alexander A. Auer      : GIAO ZORA, VPT2 properties, NMR spectrum
   Ute Becker             : Parallelization
   Giovanni Bistoni       : ED, misc. LED, open-shell LED, HFLD
   Martin Brehm           : Molecular dynamics
   Dmytro Bykov           : SCF Hessian
   Vijay G. Chilkuri      : MRCI spin determinant printing, contributions to CSF-ICE
   Dipayan Datta          : RHF DLPNO-CCSD density
   Achintya Kumar Dutta   : EOM-CC, STEOM-CC
   Dmitry Ganyushin       : Spin-Orbit,Spin-Spin,Magnetic field MRCI
   Miquel Garcia          : C-PCM and meta-GGA Hessian, CC/C-PCM, Gaussian charge scheme
   Yang Guo               : DLPNO-NEVPT2, F12-NEVPT2, CIM, IAO-localization
   Andreas Hansen         : Spin unrestricted coupled pair/coupled cluster methods
   Benjamin Helmich-Paris : MC-RPA, TRAH-SCF, COSX integrals
   Lee Huntington         : MR-EOM, pCC
   Robert Izsak           : Overlap fitted RIJCOSX, COSX-SCS-MP3, EOM
   Marcus Kettner         : VPT2
   Christian Kollmar      : KDIIS, OOCD, Brueckner-CCSD(T), CCSD density, CASPT2, CASPT2-K
   Simone Kossmann        : Meta GGA functionals, TD-DFT gradient, OOMP2, MP2 Hessian
   Martin Krupicka        : Initial AUTO-CI
   Lucas Lang             : DCDCAS
   Marvin Lechner         : AUTO-CI (C++ implementation), FIC-MRCC
   Dagmar Lenk            : GEPOL surface, SMD
   Dimitrios Liakos       : Extrapolation schemes; Compound Job, initial MDCI parallelization
   Dimitrios Manganas     : Further ROCIS development; embedding schemes
   Dimitrios Pantazis     : SARC Basis sets
   Anastasios Papadopoulos: AUTO-CI, single reference methods and gradients
   Taras Petrenko         : DFT Hessian,TD-DFT gradient, ASA, ECA, R-Raman, ABS, FL, XAS/XES, NRVS
   Peter Pinski           : DLPNO-MP2, DLPNO-MP2 Gradient
   Christoph Reimann      : Effective Core Potentials
   Marius Retegan         : Local ZFS, SOC
   Christoph Riplinger    : Optimizer, TS searches, QM/MM, DLPNO-CCSD(T), (RO)-DLPNO pert. Triples
   Tobias Risthaus        : Range-separated hybrids, TD-DFT gradient, RPA, STAB
   Michael Roemelt        : Original ROCIS implementation
   Masaaki Saitow         : Open-shell DLPNO-CCSD energy and density
   Barbara Sandhoefer     : DKH picture change effects
   Avijit Sen             : IP-ROCIS
   Kantharuban Sivalingam : CASSCF convergence, NEVPT2, FIC-MRCI
   Bernardo de Souza      : ESD, SOC TD-DFT
   Georgi Stoychev        : AutoAux, RI-MP2 NMR, DLPNO-MP2 response
   Willem Van den Heuvel  : Paramagnetic NMR
   Boris Wezisla          : Elementary symmetry handling
   Frank Wennmohs         : Technical directorship


 We gratefully acknowledge several colleagues who have allowed us to
 interface, adapt or use parts of their codes:
   Stefan Grimme, W. Hujo, H. Kruse, P. Pracht,  : VdW corrections, initial TS optimization,
                  C. Bannwarth, S. Ehlert          DFT functionals, gCP, sTDA/sTD-DF
   Ed Valeev, F. Pavosevic, A. Kumar             : LibInt (2-el integral package), F12 methods
   Garnet Chan, S. Sharma, J. Yang, R. Olivares  : DMRG
   Ulf Ekstrom                                   : XCFun DFT Library
   Mihaly Kallay                                 : mrcc  (arbitrary order and MRCC methods)
   Jiri Pittner, Ondrej Demel                    : Mk-CCSD
   Frank Weinhold                                : gennbo (NPA and NBO analysis)
   Christopher J. Cramer and Donald G. Truhlar   : smd solvation model
   Lars Goerigk                                  : TD-DFT with DH, B97 family of functionals
   V. Asgeirsson, H. Jonsson                     : NEB implementation
   FAccTs GmbH                                   : IRC, NEB, NEB-TS, DLPNO-Multilevel, CI-OPT
                                                   MM, QMMM, 2- and 3-layer-ONIOM, Crystal-QMMM,
                                                   LR-CPCM, SF, NACMEs, symmetry and pop. for TD-DFT,
                                                   nearIR, NL-DFT gradient (VV10), updates on ESD,
                                                   ML-optimized integration grids
   S Lehtola, MJT Oliveira, MAL Marques          : LibXC Library
   Liviu Ungur et al                             : ANISO software


 Your calculation uses the libint2 library for the computation of 2-el integrals
 For citations please refer to: http://libint.valeyev.net

 Your ORCA version has been built with support for libXC version: 5.1.0
 For citations please refer to: https://tddft.org/programs/libxc/

 This ORCA versions uses:
   CBLAS   interface :  Fast vector & matrix operations
   LAPACKE interface :  Fast linear algebra routines
   SCALAPACK package :  Parallel linear algebra routines
   Shared memory     :  Shared parallel matrices
   BLAS/LAPACK       :  OpenBLAS 0.3.15  USE64BITINT DYNAMIC_ARCH NO_AFFINITY SkylakeX SINGLE_THREADED
        Core in use  :  SkylakeX
   Copyright (c) 2011-2014, The OpenBLAS Project


SCAN-COORDS
================================================================================

----- Orbital basis set information -----
Your calculation utilizes the basis: def2-SVP
   F. Weigend and R. Ahlrichs, Phys. Chem. Chem. Phys. 7, 3297 (2005).

----- AuxJ basis set information -----
Your calculation utilizes the auxiliary basis: def2/J
   F. Weigend, Phys. Chem. Chem. Phys. 8, 1057 (2006).

================================================================================
                                        WARNINGS
                       Please study these warnings very carefully!
================================================================================

WARNING: The globally-selected AuxJ basis set is optimized for use with ECPs
         Make sure a suitable alternative is explicitly given all heavy elements (Z>36)

INFO   : the flag for use of the SHARK integral package has been found!

================================================================================
                                       INPUT FILE
================================================================================
NAME = orca.inp
|  1> ! NormalSCF SlowConv DIIS
|  2> %maxcore 18000
|  3> %pal
|  4>   nprocs 16
|  5> end
|  6> %pointcharges "orca.bq"
|  7> %method
|  8>   Method DFT
|  9>   Functional PBE
| 10>   RI on
| 11>   RunTyp Energy
| 12> end
| 13> %basis
| 14>   Basis "def2-SVP"
| 15>   Aux "def2/J"
| 16> end
| 17> %scf
| 18>   HFTyp rks
| 19>   AutoStart True
| 20>   SCFMode Direct
| 21>   MaxIter 1000
| 22>   sthresh 1e-6
| 23> AutoTRAHIter 120
| 24> end
| 25> %coords
| 26>   CTyp xyz
| 27>   Mult 1
| 28>   Units angs
| 29>   Charge 0
| 30>   coords
| 31> O:                      0.00000000000    0.00000000000    0.00000000000
| 32> Ti                      0.00000000000    1.48054676798   -1.27209143018
| 33> Ti                      0.00000000000   -1.48054676798   -1.27209143018
| 34> Ti                      0.00000000000    0.00000000000    1.98192821856
| 35> O                      -0.00000000000    0.00000000000   -2.54418286035
| 36> O                      -1.27209143018    1.48054676798    1.98192821856
| 37> O                       1.27209143018    1.48054676798    1.98192821856
| 38> O                       1.27209143018   -1.48054676798    1.98192821856
| 39> O                      -1.27209143018   -1.48054676798    1.98192821856
| 40> O                      -1.98192821856    1.48054676798   -1.27209143018
| 41> O                       1.98192821856    1.48054676798   -1.27209143018
| 42> O                       1.98192821856   -1.48054676798   -1.27209143018
| 43> O                      -1.98192821856   -1.48054676798   -1.27209143018
| 44> O                       0.00000000000    2.96109353596    0.00000000000
| 45> O                       0.00000000000   -2.96109353596    0.00000000000
| 46> O                      -3.25401964873    0.00000000000    0.70983678838
| 47> O                       3.25401964873    0.00000000000    0.70983678838
| 48> Ti                     -3.25401964873    0.00000000000   -1.27209143018
| 49> Ti                      3.25401964873    0.00000000000   -1.27209143018
| 50> Ti                      0.00000000000    2.96109353596    1.98192821856
| 51> Ti                      0.00000000000   -2.96109353596    1.98192821856
| 52> O                      -0.00000000000    2.96109353596   -2.54418286035
| 53> O                      -0.00000000000   -2.96109353596   -2.54418286035
| 54> O                      -0.00000000000    0.00000000000    3.96385643712
| 55> Ti                     -3.25401964873    1.48054676798    1.98192821856
| 56> Ti                      3.25401964873    1.48054676798    1.98192821856
| 57> Ti                      3.25401964873   -1.48054676798    1.98192821856
| 58> Ti                     -3.25401964873   -1.48054676798    1.98192821856
| 59> O                      -3.25401964873    2.96109353596    0.70983678838
| 60> O                       3.25401964873    2.96109353596    0.70983678838
| 61> O                       3.25401964873   -2.96109353596    0.70983678838
| 62> O                      -3.25401964873   -2.96109353596    0.70983678838
| 63> Ti                      0.00000000000    0.00000000000   -4.52611107891
| 64> Ti                     -3.25401964873    2.96109353596   -1.27209143018
| 65> Ti                      3.25401964873    2.96109353596   -1.27209143018
| 66> Ti                      3.25401964873   -2.96109353596   -1.27209143018
| 67> Ti                     -3.25401964873   -2.96109353596   -1.27209143018
| 68> O                      -3.25401964873    0.00000000000    3.25401964873
| 69> O                       3.25401964873    0.00000000000    3.25401964873
| 70> O                      -3.25401964873    0.00000000000   -3.25401964873
| 71> O                       3.25401964873    0.00000000000   -3.25401964873
| 72> Ti                      0.00000000000    4.44164030394   -1.27209143018
| 73> Ti                      0.00000000000   -4.44164030394   -1.27209143018
| 74> O                      -4.52611107891    1.48054676798   -1.27209143018
| 75> O                       4.52611107891    1.48054676798   -1.27209143018
| 76> O                       4.52611107891   -1.48054676798   -1.27209143018
| 77> O                      -4.52611107891   -1.48054676798   -1.27209143018
| 78> O                      -1.27209143018    1.48054676798   -4.52611107891
| 79> O                       1.27209143018    1.48054676798   -4.52611107891
| 80> O                       1.27209143018   -1.48054676798   -4.52611107891
| 81> O                      -1.27209143018   -1.48054676798   -4.52611107891
| 82> O                      -0.00000000000    2.96109353596    3.96385643712
| 83> O                      -0.00000000000   -2.96109353596    3.96385643712
| 84> O                      -1.27209143018    4.44164030394    1.98192821856
| 85> O                       1.27209143018    4.44164030394    1.98192821856
| 86> O                       1.27209143018   -4.44164030394    1.98192821856
| 87> O                      -1.27209143018   -4.44164030394    1.98192821856
| 88> O                      -1.98192821856    4.44164030394   -1.27209143018
| 89> O                       1.98192821856    4.44164030394   -1.27209143018
| 90> O                       1.98192821856   -4.44164030394   -1.27209143018
| 91> O                      -1.98192821856   -4.44164030394   -1.27209143018
| 92> Ti                      0.00000000000    2.96109353596   -4.52611107891
| 93> Ti                      0.00000000000   -2.96109353596   -4.52611107891
| 94> Ti                      0.00000000000    1.48054676798    5.23594786729
| 95> Ti                      0.00000000000   -1.48054676798    5.23594786729
| 96> O                      -3.25401964873    2.96109353596    3.25401964873
| 97> O                       3.25401964873    2.96109353596    3.25401964873
| 98> O                       3.25401964873   -2.96109353596    3.25401964873
| 99> O                      -3.25401964873   -2.96109353596    3.25401964873
|100> O                      -3.25401964873    2.96109353596   -3.25401964873
|101> O                       3.25401964873    2.96109353596   -3.25401964873
|102> O                       3.25401964873   -2.96109353596   -3.25401964873
|103> O                      -3.25401964873   -2.96109353596   -3.25401964873
|104> Ti                     -3.25401964873    1.48054676798   -4.52611107891
|105> Ti                      3.25401964873    1.48054676798   -4.52611107891
|106> Ti                      3.25401964873   -1.48054676798   -4.52611107891
|107> Ti                     -3.25401964873   -1.48054676798   -4.52611107891
|108> O                      -1.98192821856    1.48054676798    5.23594786729
|109> O                       1.98192821856    1.48054676798    5.23594786729
|110> O                       1.98192821856   -1.48054676798    5.23594786729
|111> O                      -1.98192821856   -1.48054676798    5.23594786729
|112> O                      -5.23594786729    1.48054676798    1.98192821856
|113> O                       5.23594786729    1.48054676798    1.98192821856
|114> O                       5.23594786729   -1.48054676798    1.98192821856
|115> O                      -5.23594786729   -1.48054676798    1.98192821856
|116> Ti                     -3.25401964873    4.44164030394    1.98192821856
|117> Ti                      3.25401964873    4.44164030394    1.98192821856
|118> Ti                      3.25401964873   -4.44164030394    1.98192821856
|119> Ti                     -3.25401964873   -4.44164030394    1.98192821856
|120> O                       0.00000000000    5.92218707193    0.00000000000
|121> O                       0.00000000000   -5.92218707193    0.00000000000
|122> Ti                     -3.25401964873    0.00000000000    5.23594786729
|123> Ti                      3.25401964873    0.00000000000    5.23594786729
|124> Ti                      0.00000000000    5.92218707193    1.98192821856
|125> Ti                      0.00000000000   -5.92218707193    1.98192821856
|126> O                      -0.00000000000    5.92218707193   -2.54418286035
|127> O                      -0.00000000000   -5.92218707193   -2.54418286035
|128> O                      -4.52611107891    4.44164030394   -1.27209143018
|129> O                       4.52611107891    4.44164030394   -1.27209143018
|130> O                       4.52611107891   -4.44164030394   -1.27209143018
|131> O                      -4.52611107891   -4.44164030394   -1.27209143018
|132> O                      -1.27209143018    4.44164030394   -4.52611107891
|133> O                       1.27209143018    4.44164030394   -4.52611107891
|134> O                       1.27209143018   -4.44164030394   -4.52611107891
|135> O                      -1.27209143018   -4.44164030394   -4.52611107891
|136> O                       0.00000000000    0.00000000000    6.50803929747
|137> O                      -6.50803929747    0.00000000000    0.00000000000
|138> O                       6.50803929747    0.00000000000    0.00000000000
|139> O                       0.00000000000    0.00000000000   -6.50803929747
|140> O                      -3.25401964873    0.00000000000   -5.79820250908
|141> O                       3.25401964873    0.00000000000   -5.79820250908
|142> O                      -3.25401964873    5.92218707193    0.70983678838
|143> O                       3.25401964873    5.92218707193    0.70983678838
|144> O                       3.25401964873   -5.92218707193    0.70983678838
|145> O                      -3.25401964873   -5.92218707193    0.70983678838
|146> Ti                     -6.50803929747    1.48054676798   -1.27209143018
|147> Ti                      6.50803929747    1.48054676798   -1.27209143018
|148> Ti                      6.50803929747   -1.48054676798   -1.27209143018
|149> Ti                     -6.50803929747   -1.48054676798   -1.27209143018
|150> Ti                     -6.50803929747    0.00000000000    1.98192821856
|151> Ti                      6.50803929747    0.00000000000    1.98192821856
|152> Ti                     -3.25401964873    2.96109353596    5.23594786729
|153> Ti                      3.25401964873    2.96109353596    5.23594786729
|154> Ti                      3.25401964873   -2.96109353596    5.23594786729
|155> Ti                     -3.25401964873   -2.96109353596    5.23594786729
|156> Ti                      0.00000000000    4.44164030394    5.23594786729
|157> Ti                      0.00000000000   -4.44164030394    5.23594786729
|158> Ti                     -3.25401964873    5.92218707193   -1.27209143018
|159> Ti                      3.25401964873    5.92218707193   -1.27209143018
|160> Ti                      3.25401964873   -5.92218707193   -1.27209143018
|161> Ti                     -3.25401964873   -5.92218707193   -1.27209143018
|162> O                      -6.50803929747    0.00000000000   -2.54418286035
|163> O                       6.50803929747    0.00000000000   -2.54418286035
|164> O                      -4.52611107891    1.48054676798    5.23594786729
|165> O                       4.52611107891    1.48054676798    5.23594786729
|166> O                       4.52611107891   -1.48054676798    5.23594786729
|167> O                      -4.52611107891   -1.48054676798    5.23594786729
|168> O                      -5.23594786729    1.48054676798   -4.52611107891
|169> O                       5.23594786729    1.48054676798   -4.52611107891
|170> O                       5.23594786729   -1.48054676798   -4.52611107891
|171> O                      -5.23594786729   -1.48054676798   -4.52611107891
|172> O                      -0.00000000000    5.92218707193    3.96385643712
|173> O                      -0.00000000000   -5.92218707193    3.96385643712
|174> Ti                     -3.25401964873    4.44164030394   -4.52611107891
|175> Ti                      3.25401964873    4.44164030394   -4.52611107891
|176> Ti                      3.25401964873   -4.44164030394   -4.52611107891
|177> Ti                     -3.25401964873   -4.44164030394   -4.52611107891
|178> O                      -1.98192821856    4.44164030394    5.23594786729
|179> O                       1.98192821856    4.44164030394    5.23594786729
|180> O                       1.98192821856   -4.44164030394    5.23594786729
|181> O                      -1.98192821856   -4.44164030394    5.23594786729
|182> O                      -5.23594786729    4.44164030394    1.98192821856
|183> O                       5.23594786729    4.44164030394    1.98192821856
|184> O                       5.23594786729   -4.44164030394    1.98192821856
|185> O                      -5.23594786729   -4.44164030394    1.98192821856
|186> O                       0.00000000000    2.96109353596    6.50803929747
|187> O                       0.00000000000   -2.96109353596    6.50803929747
|188> O                      -6.50803929747    2.96109353596    0.00000000000
|189> O                       6.50803929747    2.96109353596    0.00000000000
|190> O                       6.50803929747   -2.96109353596    0.00000000000
|191> O                      -6.50803929747   -2.96109353596    0.00000000000
|192> O                       0.00000000000    2.96109353596   -6.50803929747
|193> O                       0.00000000000   -2.96109353596   -6.50803929747
|194> O                      -3.25401964873    2.96109353596   -5.79820250908
|195> O                       3.25401964873    2.96109353596   -5.79820250908
|196> O                       3.25401964873   -2.96109353596   -5.79820250908
|197> O                      -3.25401964873   -2.96109353596   -5.79820250908
|198> Ti                     -6.50803929747    2.96109353596    1.98192821856
|199> Ti                      6.50803929747    2.96109353596    1.98192821856
|200> Ti                      6.50803929747   -2.96109353596    1.98192821856
|201> Ti                     -6.50803929747   -2.96109353596    1.98192821856
|202> Ti                      0.00000000000    5.92218707193   -4.52611107891
|203> Ti                      0.00000000000   -5.92218707193   -4.52611107891
|204> O                      -3.25401964873    5.92218707193    3.25401964873
|205> O                       3.25401964873    5.92218707193    3.25401964873
|206> O                       3.25401964873   -5.92218707193    3.25401964873
|207> O                      -3.25401964873   -5.92218707193    3.25401964873
|208> O                      -3.25401964873    5.92218707193   -3.25401964873
|209> O                       3.25401964873    5.92218707193   -3.25401964873
|210> O                       3.25401964873   -5.92218707193   -3.25401964873
|211> O                      -3.25401964873   -5.92218707193   -3.25401964873
|212> Ti                      0.00000000000    7.40273383991   -1.27209143018
|213> Ti                      0.00000000000   -7.40273383991   -1.27209143018
|214> O                      -6.50803929747    2.96109353596   -2.54418286035
|215> O                       6.50803929747    2.96109353596   -2.54418286035
|216> O                       6.50803929747   -2.96109353596   -2.54418286035
|217> O                      -6.50803929747   -2.96109353596   -2.54418286035
|218> O                      -6.50803929747    0.00000000000    3.96385643712
|219> O                       6.50803929747    0.00000000000    3.96385643712
|220> O                      -1.27209143018    7.40273383991    1.98192821856
|221> O                       1.27209143018    7.40273383991    1.98192821856
|222> O                       1.27209143018   -7.40273383991    1.98192821856
|223> O                      -1.27209143018   -7.40273383991    1.98192821856
|224> O                      -1.98192821856    7.40273383991   -1.27209143018
|225> O                       1.98192821856    7.40273383991   -1.27209143018
|226> O                       1.98192821856   -7.40273383991   -1.27209143018
|227> O                      -1.98192821856   -7.40273383991   -1.27209143018
|228> O                      -3.25401964873    0.00000000000    7.21787608585
|229> O                       3.25401964873    0.00000000000    7.21787608585
|230> Ti                      0.00000000000    1.48054676798   -7.78013072764
|231> Ti                      0.00000000000   -1.48054676798   -7.78013072764
|232> Ti                     -6.50803929747    0.00000000000   -4.52611107891
|233> Ti                      6.50803929747    0.00000000000   -4.52611107891
|234> Ti                     -6.50803929747    4.44164030394   -1.27209143018
|235> Ti                      6.50803929747    4.44164030394   -1.27209143018
|236> Ti                      6.50803929747   -4.44164030394   -1.27209143018
|237> Ti                     -6.50803929747   -4.44164030394   -1.27209143018
|238> O                      -7.78013072764    1.48054676798    1.98192821856
|239> O                       7.78013072764    1.48054676798    1.98192821856
|240> O                       7.78013072764   -1.48054676798    1.98192821856
|241> O                      -7.78013072764   -1.48054676798    1.98192821856
|242> O                      -1.98192821856    1.48054676798   -7.78013072764
|243> O                       1.98192821856    1.48054676798   -7.78013072764
|244> O                       1.98192821856   -1.48054676798   -7.78013072764
|245> O                      -1.98192821856   -1.48054676798   -7.78013072764
|246> O                      -6.50803929747    2.96109353596    3.96385643712
|247> O                       6.50803929747    2.96109353596    3.96385643712
|248> O                       6.50803929747   -2.96109353596    3.96385643712
|249> O                      -6.50803929747   -2.96109353596    3.96385643712
|250> O                      -4.52611107891    4.44164030394    5.23594786729
|251> O                       4.52611107891    4.44164030394    5.23594786729
|252> O                       4.52611107891   -4.44164030394    5.23594786729
|253> O                      -4.52611107891   -4.44164030394    5.23594786729
|254> O                      -5.23594786729    4.44164030394   -4.52611107891
|255> O                       5.23594786729    4.44164030394   -4.52611107891
|256> O                       5.23594786729   -4.44164030394   -4.52611107891
|257> O                      -5.23594786729   -4.44164030394   -4.52611107891
|258> Ti                     -3.25401964873    7.40273383991    1.98192821856
|259> Ti                      3.25401964873    7.40273383991    1.98192821856
|260> Ti                      3.25401964873   -7.40273383991    1.98192821856
|261> Ti                     -3.25401964873   -7.40273383991    1.98192821856
|262> Ti                     -3.25401964873    0.00000000000   -7.78013072764
|263> Ti                      3.25401964873    0.00000000000   -7.78013072764
|264> O                      -3.25401964873    2.96109353596    7.21787608585
|265> O                       3.25401964873    2.96109353596    7.21787608585
|266> O                       3.25401964873   -2.96109353596    7.21787608585
|267> O                      -3.25401964873   -2.96109353596    7.21787608585
|268> Ti                     -6.50803929747    2.96109353596   -4.52611107891
|269> Ti                      6.50803929747    2.96109353596   -4.52611107891
|270> Ti                      6.50803929747   -2.96109353596   -4.52611107891
|271> Ti                     -6.50803929747   -2.96109353596   -4.52611107891
|272> Ti                     -6.50803929747    1.48054676798    5.23594786729
|273> Ti                      6.50803929747    1.48054676798    5.23594786729
|274> Ti                      6.50803929747   -1.48054676798    5.23594786729
|275> Ti                     -6.50803929747   -1.48054676798    5.23594786729
|276> Ti                      0.00000000000    0.00000000000    8.48996751602
|277> Ti                     -3.25401964873    5.92218707193    5.23594786729
|278> Ti                      3.25401964873    5.92218707193    5.23594786729
|279> Ti                      3.25401964873   -5.92218707193    5.23594786729
|280> Ti                     -3.25401964873   -5.92218707193    5.23594786729
|281> O                      -1.27209143018    1.48054676798    8.48996751602
|282> O                       1.27209143018    1.48054676798    8.48996751602
|283> O                       1.27209143018   -1.48054676798    8.48996751602
|284> O                      -1.27209143018   -1.48054676798    8.48996751602
|285> O                      -8.48996751602    1.48054676798   -1.27209143018
|286> O                       8.48996751602    1.48054676798   -1.27209143018
|287> O                       8.48996751602   -1.48054676798   -1.27209143018
|288> O                      -8.48996751602   -1.48054676798   -1.27209143018
|289> O                      -4.52611107891    7.40273383991   -1.27209143018
|290> O                       4.52611107891    7.40273383991   -1.27209143018
|291> O                       4.52611107891   -7.40273383991   -1.27209143018
|292> O                      -4.52611107891   -7.40273383991   -1.27209143018
|293> O                      -1.27209143018    7.40273383991   -4.52611107891
|294> O                       1.27209143018    7.40273383991   -4.52611107891
|295> O                       1.27209143018   -7.40273383991   -4.52611107891
|296> O                      -1.27209143018   -7.40273383991   -4.52611107891
|297> O                      -0.00000000000    0.00000000000   -9.05222215782
|298> Ti>    4.00000000000   -3.25401964873    2.96109353596   -7.78013072764
|299> NewECP
|300> N_core 0
|301>   lmax f
|302>   s 2
|303>    1      0.860000       9.191690  2
|304>    2      0.172000       0.008301  2
|305>   p 2
|306>    1      0.860000      17.997720  2
|307>    2      0.172000      -0.032600  2
|308>   d 2
|309>    1      1.600000      -9.504310  2
|310>    2      0.320000      -0.151370  2
|311>   f 1
|312>    1      1.000000000    0.000000000 2
|313> end
|314> Ti>    4.00000000000    3.25401964873    2.96109353596   -7.78013072764
|315> NewECP
|316> N_core 0
|317>   lmax f
|318>   s 2
|319>    1      0.860000       9.191690  2
|320>    2      0.172000       0.008301  2
|321>   p 2
|322>    1      0.860000      17.997720  2
|323>    2      0.172000      -0.032600  2
|324>   d 2
|325>    1      1.600000      -9.504310  2
|326>    2      0.320000      -0.151370  2
|327>   f 1
|328>    1      1.000000000    0.000000000 2
|329> end
|330> Ti>    4.00000000000    3.25401964873   -2.96109353596   -7.78013072764
|331> NewECP
|332> N_core 0
|333>   lmax f
|334>   s 2
|335>    1      0.860000       9.191690  2
|336>    2      0.172000       0.008301  2
|337>   p 2
|338>    1      0.860000      17.997720  2
|339>    2      0.172000      -0.032600  2
|340>   d 2
|341>    1      1.600000      -9.504310  2
|342>    2      0.320000      -0.151370  2
|343>   f 1
|344>    1      1.000000000    0.000000000 2
|345> end
|346> Ti>    4.00000000000   -3.25401964873   -2.96109353596   -7.78013072764
|347> NewECP
|348> N_core 0
|349>   lmax f
|350>   s 2
|351>    1      0.860000       9.191690  2
|352>    2      0.172000       0.008301  2
|353>   p 2
|354>    1      0.860000      17.997720  2
|355>    2      0.172000      -0.032600  2
|356>   d 2
|357>    1      1.600000      -9.504310  2
|358>    2      0.320000      -0.151370  2
|359>   f 1
|360>    1      1.000000000    0.000000000 2
|361> end
|362> Ti>    4.00000000000    0.00000000000    4.44164030394   -7.78013072764
|363> NewECP
|364> N_core 0
|365>   lmax f
|366>   s 2
|367>    1      0.860000       9.191690  2
|368>    2      0.172000       0.008301  2
|369>   p 2
|370>    1      0.860000      17.997720  2
|371>    2      0.172000      -0.032600  2
|372>   d 2
|373>    1      1.600000      -9.504310  2
|374>    2      0.320000      -0.151370  2
|375>   f 1
|376>    1      1.000000000    0.000000000 2
|377> end
|378> Ti>    4.00000000000    0.00000000000   -4.44164030394   -7.78013072764
|379> NewECP
|380> N_core 0
|381>   lmax f
|382>   s 2
|383>    1      0.860000       9.191690  2
|384>    2      0.172000       0.008301  2
|385>   p 2
|386>    1      0.860000      17.997720  2
|387>    2      0.172000      -0.032600  2
|388>   d 2
|389>    1      1.600000      -9.504310  2
|390>    2      0.320000      -0.151370  2
|391>   f 1
|392>    1      1.000000000    0.000000000 2
|393> end
|394> Ti>    4.00000000000    0.00000000000    2.96109353596    8.48996751602
|395> NewECP
|396> N_core 0
|397>   lmax f
|398>   s 2
|399>    1      0.860000       9.191690  2
|400>    2      0.172000       0.008301  2
|401>   p 2
|402>    1      0.860000      17.997720  2
|403>    2      0.172000      -0.032600  2
|404>   d 2
|405>    1      1.600000      -9.504310  2
|406>    2      0.320000      -0.151370  2
|407>   f 1
|408>    1      1.000000000    0.000000000 2
|409> end
|410> Ti>    4.00000000000    0.00000000000   -2.96109353596    8.48996751602
|411> NewECP
|412> N_core 0
|413>   lmax f
|414>   s 2
|415>    1      0.860000       9.191690  2
|416>    2      0.172000       0.008301  2
|417>   p 2
|418>    1      0.860000      17.997720  2
|419>    2      0.172000      -0.032600  2
|420>   d 2
|421>    1      1.600000      -9.504310  2
|422>    2      0.320000      -0.151370  2
|423>   f 1
|424>    1      1.000000000    0.000000000 2
|425> end
|426> Ti>    4.00000000000   -6.50803929747    5.92218707193    1.98192821856
|427> NewECP
|428> N_core 0
|429>   lmax f
|430>   s 2
|431>    1      0.860000       9.191690  2
|432>    2      0.172000       0.008301  2
|433>   p 2
|434>    1      0.860000      17.997720  2
|435>    2      0.172000      -0.032600  2
|436>   d 2
|437>    1      1.600000      -9.504310  2
|438>    2      0.320000      -0.151370  2
|439>   f 1
|440>    1      1.000000000    0.000000000 2
|441> end
|442> Ti>    4.00000000000    6.50803929747    5.92218707193    1.98192821856
|443> NewECP
|444> N_core 0
|445>   lmax f
|446>   s 2
|447>    1      0.860000       9.191690  2
|448>    2      0.172000       0.008301  2
|449>   p 2
|450>    1      0.860000      17.997720  2
|451>    2      0.172000      -0.032600  2
|452>   d 2
|453>    1      1.600000      -9.504310  2
|454>    2      0.320000      -0.151370  2
|455>   f 1
|456>    1      1.000000000    0.000000000 2
|457> end
|458> Ti>    4.00000000000    6.50803929747   -5.92218707193    1.98192821856
|459> NewECP
|460> N_core 0
|461>   lmax f
|462>   s 2
|463>    1      0.860000       9.191690  2
|464>    2      0.172000       0.008301  2
|465>   p 2
|466>    1      0.860000      17.997720  2
|467>    2      0.172000      -0.032600  2
|468>   d 2
|469>    1      1.600000      -9.504310  2
|470>    2      0.320000      -0.151370  2
|471>   f 1
|472>    1      1.000000000    0.000000000 2
|473> end
|474> Ti>    4.00000000000   -6.50803929747   -5.92218707193    1.98192821856
|475> NewECP
|476> N_core 0
|477>   lmax f
|478>   s 2
|479>    1      0.860000       9.191690  2
|480>    2      0.172000       0.008301  2
|481>   p 2
|482>    1      0.860000      17.997720  2
|483>    2      0.172000      -0.032600  2
|484>   d 2
|485>    1      1.600000      -9.504310  2
|486>    2      0.320000      -0.151370  2
|487>   f 1
|488>    1      1.000000000    0.000000000 2
|489> end
|490> Ti>    4.00000000000    0.00000000000    7.40273383991    5.23594786729
|491> NewECP
|492> N_core 0
|493>   lmax f
|494>   s 2
|495>    1      0.860000       9.191690  2
|496>    2      0.172000       0.008301  2
|497>   p 2
|498>    1      0.860000      17.997720  2
|499>    2      0.172000      -0.032600  2
|500>   d 2
|501>    1      1.600000      -9.504310  2
|502>    2      0.320000      -0.151370  2
|503>   f 1
|504>    1      1.000000000    0.000000000 2
|505> end
|506> Ti>    4.00000000000    0.00000000000   -7.40273383991    5.23594786729
|507> NewECP
|508> N_core 0
|509>   lmax f
|510>   s 2
|511>    1      0.860000       9.191690  2
|512>    2      0.172000       0.008301  2
|513>   p 2
|514>    1      0.860000      17.997720  2
|515>    2      0.172000      -0.032600  2
|516>   d 2
|517>    1      1.600000      -9.504310  2
|518>    2      0.320000      -0.151370  2
|519>   f 1
|520>    1      1.000000000    0.000000000 2
|521> end
|522> Ti>    4.00000000000    0.00000000000    8.88328060789    1.98192821856
|523> NewECP
|524> N_core 0
|525>   lmax f
|526>   s 2
|527>    1      0.860000       9.191690  2
|528>    2      0.172000       0.008301  2
|529>   p 2
|530>    1      0.860000      17.997720  2
|531>    2      0.172000      -0.032600  2
|532>   d 2
|533>    1      1.600000      -9.504310  2
|534>    2      0.320000      -0.151370  2
|535>   f 1
|536>    1      1.000000000    0.000000000 2
|537> end
|538> Ti>    4.00000000000    0.00000000000   -8.88328060789    1.98192821856
|539> NewECP
|540> N_core 0
|541>   lmax f
|542>   s 2
|543>    1      0.860000       9.191690  2
|544>    2      0.172000       0.008301  2
|545>   p 2
|546>    1      0.860000      17.997720  2
|547>    2      0.172000      -0.032600  2
|548>   d 2
|549>    1      1.600000      -9.504310  2
|550>    2      0.320000      -0.151370  2
|551>   f 1
|552>    1      1.000000000    0.000000000 2
|553> end
|554> Ti>    4.00000000000   -3.25401964873    1.48054676798    8.48996751602
|555> NewECP
|556> N_core 0
|557>   lmax f
|558>   s 2
|559>    1      0.860000       9.191690  2
|560>    2      0.172000       0.008301  2
|561>   p 2
|562>    1      0.860000      17.997720  2
|563>    2      0.172000      -0.032600  2
|564>   d 2
|565>    1      1.600000      -9.504310  2
|566>    2      0.320000      -0.151370  2
|567>   f 1
|568>    1      1.000000000    0.000000000 2
|569> end
|570> Ti>    4.00000000000    3.25401964873    1.48054676798    8.48996751602
|571> NewECP
|572> N_core 0
|573>   lmax f
|574>   s 2
|575>    1      0.860000       9.191690  2
|576>    2      0.172000       0.008301  2
|577>   p 2
|578>    1      0.860000      17.997720  2
|579>    2      0.172000      -0.032600  2
|580>   d 2
|581>    1      1.600000      -9.504310  2
|582>    2      0.320000      -0.151370  2
|583>   f 1
|584>    1      1.000000000    0.000000000 2
|585> end
|586> Ti>    4.00000000000    3.25401964873   -1.48054676798    8.48996751602
|587> NewECP
|588> N_core 0
|589>   lmax f
|590>   s 2
|591>    1      0.860000       9.191690  2
|592>    2      0.172000       0.008301  2
|593>   p 2
|594>    1      0.860000      17.997720  2
|595>    2      0.172000      -0.032600  2
|596>   d 2
|597>    1      1.600000      -9.504310  2
|598>    2      0.320000      -0.151370  2
|599>   f 1
|600>    1      1.000000000    0.000000000 2
|601> end
|602> Ti>    4.00000000000   -3.25401964873   -1.48054676798    8.48996751602
|603> NewECP
|604> N_core 0
|605>   lmax f
|606>   s 2
|607>    1      0.860000       9.191690  2
|608>    2      0.172000       0.008301  2
|609>   p 2
|610>    1      0.860000      17.997720  2
|611>    2      0.172000      -0.032600  2
|612>   d 2
|613>    1      1.600000      -9.504310  2
|614>    2      0.320000      -0.151370  2
|615>   f 1
|616>    1      1.000000000    0.000000000 2
|617> end
|618> Ti>    4.00000000000   -3.25401964873    7.40273383991   -4.52611107891
|619> NewECP
|620> N_core 0
|621>   lmax f
|622>   s 2
|623>    1      0.860000       9.191690  2
|624>    2      0.172000       0.008301  2
|625>   p 2
|626>    1      0.860000      17.997720  2
|627>    2      0.172000      -0.032600  2
|628>   d 2
|629>    1      1.600000      -9.504310  2
|630>    2      0.320000      -0.151370  2
|631>   f 1
|632>    1      1.000000000    0.000000000 2
|633> end
|634> Ti>    4.00000000000    3.25401964873    7.40273383991   -4.52611107891
|635> NewECP
|636> N_core 0
|637>   lmax f
|638>   s 2
|639>    1      0.860000       9.191690  2
|640>    2      0.172000       0.008301  2
|641>   p 2
|642>    1      0.860000      17.997720  2
|643>    2      0.172000      -0.032600  2
|644>   d 2
|645>    1      1.600000      -9.504310  2
|646>    2      0.320000      -0.151370  2
|647>   f 1
|648>    1      1.000000000    0.000000000 2
|649> end
|650> Ti>    4.00000000000    3.25401964873   -7.40273383991   -4.52611107891
|651> NewECP
|652> N_core 0
|653>   lmax f
|654>   s 2
|655>    1      0.860000       9.191690  2
|656>    2      0.172000       0.008301  2
|657>   p 2
|658>    1      0.860000      17.997720  2
|659>    2      0.172000      -0.032600  2
|660>   d 2
|661>    1      1.600000      -9.504310  2
|662>    2      0.320000      -0.151370  2
|663>   f 1
|664>    1      1.000000000    0.000000000 2
|665> end
|666> Ti>    4.00000000000   -3.25401964873   -7.40273383991   -4.52611107891
|667> NewECP
|668> N_core 0
|669>   lmax f
|670>   s 2
|671>    1      0.860000       9.191690  2
|672>    2      0.172000       0.008301  2
|673>   p 2
|674>    1      0.860000      17.997720  2
|675>    2      0.172000      -0.032600  2
|676>   d 2
|677>    1      1.600000      -9.504310  2
|678>    2      0.320000      -0.151370  2
|679>   f 1
|680>    1      1.000000000    0.000000000 2
|681> end
|682> Ti>    4.00000000000   -6.50803929747    4.44164030394    5.23594786729
|683> NewECP
|684> N_core 0
|685>   lmax f
|686>   s 2
|687>    1      0.860000       9.191690  2
|688>    2      0.172000       0.008301  2
|689>   p 2
|690>    1      0.860000      17.997720  2
|691>    2      0.172000      -0.032600  2
|692>   d 2
|693>    1      1.600000      -9.504310  2
|694>    2      0.320000      -0.151370  2
|695>   f 1
|696>    1      1.000000000    0.000000000 2
|697> end
|698> Ti>    4.00000000000    6.50803929747    4.44164030394    5.23594786729
|699> NewECP
|700> N_core 0
|701>   lmax f
|702>   s 2
|703>    1      0.860000       9.191690  2
|704>    2      0.172000       0.008301  2
|705>   p 2
|706>    1      0.860000      17.997720  2
|707>    2      0.172000      -0.032600  2
|708>   d 2
|709>    1      1.600000      -9.504310  2
|710>    2      0.320000      -0.151370  2
|711>   f 1
|712>    1      1.000000000    0.000000000 2
|713> end
|714> Ti>    4.00000000000    6.50803929747   -4.44164030394    5.23594786729
|715> NewECP
|716> N_core 0
|717>   lmax f
|718>   s 2
|719>    1      0.860000       9.191690  2
|720>    2      0.172000       0.008301  2
|721>   p 2
|722>    1      0.860000      17.997720  2
|723>    2      0.172000      -0.032600  2
|724>   d 2
|725>    1      1.600000      -9.504310  2
|726>    2      0.320000      -0.151370  2
|727>   f 1
|728>    1      1.000000000    0.000000000 2
|729> end
|730> Ti>    4.00000000000   -6.50803929747   -4.44164030394    5.23594786729
|731> NewECP
|732> N_core 0
|733>   lmax f
|734>   s 2
|735>    1      0.860000       9.191690  2
|736>    2      0.172000       0.008301  2
|737>   p 2
|738>    1      0.860000      17.997720  2
|739>    2      0.172000      -0.032600  2
|740>   d 2
|741>    1      1.600000      -9.504310  2
|742>    2      0.320000      -0.151370  2
|743>   f 1
|744>    1      1.000000000    0.000000000 2
|745> end
|746> Ti>    4.00000000000   -3.25401964873    8.88328060789   -1.27209143018
|747> NewECP
|748> N_core 0
|749>   lmax f
|750>   s 2
|751>    1      0.860000       9.191690  2
|752>    2      0.172000       0.008301  2
|753>   p 2
|754>    1      0.860000      17.997720  2
|755>    2      0.172000      -0.032600  2
|756>   d 2
|757>    1      1.600000      -9.504310  2
|758>    2      0.320000      -0.151370  2
|759>   f 1
|760>    1      1.000000000    0.000000000 2
|761> end
|762> Ti>    4.00000000000    3.25401964873    8.88328060789   -1.27209143018
|763> NewECP
|764> N_core 0
|765>   lmax f
|766>   s 2
|767>    1      0.860000       9.191690  2
|768>    2      0.172000       0.008301  2
|769>   p 2
|770>    1      0.860000      17.997720  2
|771>    2      0.172000      -0.032600  2
|772>   d 2
|773>    1      1.600000      -9.504310  2
|774>    2      0.320000      -0.151370  2
|775>   f 1
|776>    1      1.000000000    0.000000000 2
|777> end
|778> Ti>    4.00000000000    3.25401964873   -8.88328060789   -1.27209143018
|779> NewECP
|780> N_core 0
|781>   lmax f
|782>   s 2
|783>    1      0.860000       9.191690  2
|784>    2      0.172000       0.008301  2
|785>   p 2
|786>    1      0.860000      17.997720  2
|787>    2      0.172000      -0.032600  2
|788>   d 2
|789>    1      1.600000      -9.504310  2
|790>    2      0.320000      -0.151370  2
|791>   f 1
|792>    1      1.000000000    0.000000000 2
|793> end
|794> Ti>    4.00000000000   -3.25401964873   -8.88328060789   -1.27209143018
|795> NewECP
|796> N_core 0
|797>   lmax f
|798>   s 2
|799>    1      0.860000       9.191690  2
|800>    2      0.172000       0.008301  2
|801>   p 2
|802>    1      0.860000      17.997720  2
|803>    2      0.172000      -0.032600  2
|804>   d 2
|805>    1      1.600000      -9.504310  2
|806>    2      0.320000      -0.151370  2
|807>   f 1
|808>    1      1.000000000    0.000000000 2
|809> end
|810> Ti>    4.00000000000   -9.76205894620    0.00000000000   -1.27209143018
|811> NewECP
|812> N_core 0
|813>   lmax f
|814>   s 2
|815>    1      0.860000       9.191690  2
|816>    2      0.172000       0.008301  2
|817>   p 2
|818>    1      0.860000      17.997720  2
|819>    2      0.172000      -0.032600  2
|820>   d 2
|821>    1      1.600000      -9.504310  2
|822>    2      0.320000      -0.151370  2
|823>   f 1
|824>    1      1.000000000    0.000000000 2
|825> end
|826> Ti>    4.00000000000    9.76205894620    0.00000000000   -1.27209143018
|827> NewECP
|828> N_core 0
|829>   lmax f
|830>   s 2
|831>    1      0.860000       9.191690  2
|832>    2      0.172000       0.008301  2
|833>   p 2
|834>    1      0.860000      17.997720  2
|835>    2      0.172000      -0.032600  2
|836>   d 2
|837>    1      1.600000      -9.504310  2
|838>    2      0.320000      -0.151370  2
|839>   f 1
|840>    1      1.000000000    0.000000000 2
|841> end
|842> Ti>    4.00000000000   -6.50803929747    5.92218707193   -4.52611107891
|843> NewECP
|844> N_core 0
|845>   lmax f
|846>   s 2
|847>    1      0.860000       9.191690  2
|848>    2      0.172000       0.008301  2
|849>   p 2
|850>    1      0.860000      17.997720  2
|851>    2      0.172000      -0.032600  2
|852>   d 2
|853>    1      1.600000      -9.504310  2
|854>    2      0.320000      -0.151370  2
|855>   f 1
|856>    1      1.000000000    0.000000000 2
|857> end
|858> Ti>    4.00000000000    6.50803929747    5.92218707193   -4.52611107891
|859> NewECP
|860> N_core 0
|861>   lmax f
|862>   s 2
|863>    1      0.860000       9.191690  2
|864>    2      0.172000       0.008301  2
|865>   p 2
|866>    1      0.860000      17.997720  2
|867>    2      0.172000      -0.032600  2
|868>   d 2
|869>    1      1.600000      -9.504310  2
|870>    2      0.320000      -0.151370  2
|871>   f 1
|872>    1      1.000000000    0.000000000 2
|873> end
|874> Ti>    4.00000000000    6.50803929747   -5.92218707193   -4.52611107891
|875> NewECP
|876> N_core 0
|877>   lmax f
|878>   s 2
|879>    1      0.860000       9.191690  2
|880>    2      0.172000       0.008301  2
|881>   p 2
|882>    1      0.860000      17.997720  2
|883>    2      0.172000      -0.032600  2
|884>   d 2
|885>    1      1.600000      -9.504310  2
|886>    2      0.320000      -0.151370  2
|887>   f 1
|888>    1      1.000000000    0.000000000 2
|889> end
|890> Ti>    4.00000000000   -6.50803929747   -5.92218707193   -4.52611107891
|891> NewECP
|892> N_core 0
|893>   lmax f
|894>   s 2
|895>    1      0.860000       9.191690  2
|896>    2      0.172000       0.008301  2
|897>   p 2
|898>    1      0.860000      17.997720  2
|899>    2      0.172000      -0.032600  2
|900>   d 2
|901>    1      1.600000      -9.504310  2
|902>    2      0.320000      -0.151370  2
|903>   f 1
|904>    1      1.000000000    0.000000000 2
|905> end
|906> Ti>    4.00000000000   -6.50803929747    7.40273383991   -1.27209143018
|907> NewECP
|908> N_core 0
|909>   lmax f
|910>   s 2
|911>    1      0.860000       9.191690  2
|912>    2      0.172000       0.008301  2
|913>   p 2
|914>    1      0.860000      17.997720  2
|915>    2      0.172000      -0.032600  2
|916>   d 2
|917>    1      1.600000      -9.504310  2
|918>    2      0.320000      -0.151370  2
|919>   f 1
|920>    1      1.000000000    0.000000000 2
|921> end
|922> Ti>    4.00000000000    6.50803929747    7.40273383991   -1.27209143018
|923> NewECP
|924> N_core 0
|925>   lmax f
|926>   s 2
|927>    1      0.860000       9.191690  2
|928>    2      0.172000       0.008301  2
|929>   p 2
|930>    1      0.860000      17.997720  2
|931>    2      0.172000      -0.032600  2
|932>   d 2
|933>    1      1.600000      -9.504310  2
|934>    2      0.320000      -0.151370  2
|935>   f 1
|936>    1      1.000000000    0.000000000 2
|937> end
|938> Ti>    4.00000000000    6.50803929747   -7.40273383991   -1.27209143018
|939> NewECP
|940> N_core 0
|941>   lmax f
|942>   s 2
|943>    1      0.860000       9.191690  2
|944>    2      0.172000       0.008301  2
|945>   p 2
|946>    1      0.860000      17.997720  2
|947>    2      0.172000      -0.032600  2
|948>   d 2
|949>    1      1.600000      -9.504310  2
|950>    2      0.320000      -0.151370  2
|951>   f 1
|952>    1      1.000000000    0.000000000 2
|953> end
|954> Ti>    4.00000000000   -6.50803929747   -7.40273383991   -1.27209143018
|955> NewECP
|956> N_core 0
|957>   lmax f
|958>   s 2
|959>    1      0.860000       9.191690  2
|960>    2      0.172000       0.008301  2
|961>   p 2
|962>    1      0.860000      17.997720  2
|963>    2      0.172000      -0.032600  2
|964>   d 2
|965>    1      1.600000      -9.504310  2
|966>    2      0.320000      -0.151370  2
|967>   f 1
|968>    1      1.000000000    0.000000000 2
|969> end
|970> Ti>    4.00000000000    0.00000000000    8.88328060789   -4.52611107891
|971> NewECP
|972> N_core 0
|973>   lmax f
|974>   s 2
|975>    1      0.860000       9.191690  2
|976>    2      0.172000       0.008301  2
|977>   p 2
|978>    1      0.860000      17.997720  2
|979>    2      0.172000      -0.032600  2
|980>   d 2
|981>    1      1.600000      -9.504310  2
|982>    2      0.320000      -0.151370  2
|983>   f 1
|984>    1      1.000000000    0.000000000 2
|985> end
|986> Ti>    4.00000000000    0.00000000000   -8.88328060789   -4.52611107891
|987> NewECP
|988> N_core 0
|989>   lmax f
|990>   s 2
|991>    1      0.860000       9.191690  2
|992>    2      0.172000       0.008301  2
|993>   p 2
|994>    1      0.860000      17.997720  2
|995>    2      0.172000      -0.032600  2
|996>   d 2
|997>    1      1.600000      -9.504310  2
|998>    2      0.320000      -0.151370  2
|999>   f 1
|1000>    1      1.000000000    0.000000000 2
|1001> end
|1002> Ti>    4.00000000000   -9.76205894620    1.48054676798    1.98192821856
|1003> NewECP
|1004> N_core 0
|1005>   lmax f
|1006>   s 2
|1007>    1      0.860000       9.191690  2
|1008>    2      0.172000       0.008301  2
|1009>   p 2
|1010>    1      0.860000      17.997720  2
|1011>    2      0.172000      -0.032600  2
|1012>   d 2
|1013>    1      1.600000      -9.504310  2
|1014>    2      0.320000      -0.151370  2
|1015>   f 1
|1016>    1      1.000000000    0.000000000 2
|1017> end
|1018> Ti>    4.00000000000    9.76205894620    1.48054676798    1.98192821856
|1019> NewECP
|1020> N_core 0
|1021>   lmax f
|1022>   s 2
|1023>    1      0.860000       9.191690  2
|1024>    2      0.172000       0.008301  2
|1025>   p 2
|1026>    1      0.860000      17.997720  2
|1027>    2      0.172000      -0.032600  2
|1028>   d 2
|1029>    1      1.600000      -9.504310  2
|1030>    2      0.320000      -0.151370  2
|1031>   f 1
|1032>    1      1.000000000    0.000000000 2
|1033> end
|1034> Ti>    4.00000000000    9.76205894620   -1.48054676798    1.98192821856
|1035> NewECP
|1036> N_core 0
|1037>   lmax f
|1038>   s 2
|1039>    1      0.860000       9.191690  2
|1040>    2      0.172000       0.008301  2
|1041>   p 2
|1042>    1      0.860000      17.997720  2
|1043>    2      0.172000      -0.032600  2
|1044>   d 2
|1045>    1      1.600000      -9.504310  2
|1046>    2      0.320000      -0.151370  2
|1047>   f 1
|1048>    1      1.000000000    0.000000000 2
|1049> end
|1050> Ti>    4.00000000000   -9.76205894620   -1.48054676798    1.98192821856
|1051> NewECP
|1052> N_core 0
|1053>   lmax f
|1054>   s 2
|1055>    1      0.860000       9.191690  2
|1056>    2      0.172000       0.008301  2
|1057>   p 2
|1058>    1      0.860000      17.997720  2
|1059>    2      0.172000      -0.032600  2
|1060>   d 2
|1061>    1      1.600000      -9.504310  2
|1062>    2      0.320000      -0.151370  2
|1063>   f 1
|1064>    1      1.000000000    0.000000000 2
|1065> end
|1066> Ti>    4.00000000000   -3.25401964873    4.44164030394    8.48996751602
|1067> NewECP
|1068> N_core 0
|1069>   lmax f
|1070>   s 2
|1071>    1      0.860000       9.191690  2
|1072>    2      0.172000       0.008301  2
|1073>   p 2
|1074>    1      0.860000      17.997720  2
|1075>    2      0.172000      -0.032600  2
|1076>   d 2
|1077>    1      1.600000      -9.504310  2
|1078>    2      0.320000      -0.151370  2
|1079>   f 1
|1080>    1      1.000000000    0.000000000 2
|1081> end
|1082> Ti>    4.00000000000    3.25401964873    4.44164030394    8.48996751602
|1083> NewECP
|1084> N_core 0
|1085>   lmax f
|1086>   s 2
|1087>    1      0.860000       9.191690  2
|1088>    2      0.172000       0.008301  2
|1089>   p 2
|1090>    1      0.860000      17.997720  2
|1091>    2      0.172000      -0.032600  2
|1092>   d 2
|1093>    1      1.600000      -9.504310  2
|1094>    2      0.320000      -0.151370  2
|1095>   f 1
|1096>    1      1.000000000    0.000000000 2
|1097> end
|1098> Ti>    4.00000000000    3.25401964873   -4.44164030394    8.48996751602
|1099> NewECP
|1100> N_core 0
|1101>   lmax f
|1102>   s 2
|1103>    1      0.860000       9.191690  2
|1104>    2      0.172000       0.008301  2
|1105>   p 2
|1106>    1      0.860000      17.997720  2
|1107>    2      0.172000      -0.032600  2
|1108>   d 2
|1109>    1      1.600000      -9.504310  2
|1110>    2      0.320000      -0.151370  2
|1111>   f 1
|1112>    1      1.000000000    0.000000000 2
|1113> end
|1114> Ti>    4.00000000000   -3.25401964873   -4.44164030394    8.48996751602
|1115> NewECP
|1116> N_core 0
|1117>   lmax f
|1118>   s 2
|1119>    1      0.860000       9.191690  2
|1120>    2      0.172000       0.008301  2
|1121>   p 2
|1122>    1      0.860000      17.997720  2
|1123>    2      0.172000      -0.032600  2
|1124>   d 2
|1125>    1      1.600000      -9.504310  2
|1126>    2      0.320000      -0.151370  2
|1127>   f 1
|1128>    1      1.000000000    0.000000000 2
|1129> end
|1130> Ti>    4.00000000000   -6.50803929747    1.48054676798   -7.78013072764
|1131> NewECP
|1132> N_core 0
|1133>   lmax f
|1134>   s 2
|1135>    1      0.860000       9.191690  2
|1136>    2      0.172000       0.008301  2
|1137>   p 2
|1138>    1      0.860000      17.997720  2
|1139>    2      0.172000      -0.032600  2
|1140>   d 2
|1141>    1      1.600000      -9.504310  2
|1142>    2      0.320000      -0.151370  2
|1143>   f 1
|1144>    1      1.000000000    0.000000000 2
|1145> end
|1146> Ti>    4.00000000000    6.50803929747    1.48054676798   -7.78013072764
|1147> NewECP
|1148> N_core 0
|1149>   lmax f
|1150>   s 2
|1151>    1      0.860000       9.191690  2
|1152>    2      0.172000       0.008301  2
|1153>   p 2
|1154>    1      0.860000      17.997720  2
|1155>    2      0.172000      -0.032600  2
|1156>   d 2
|1157>    1      1.600000      -9.504310  2
|1158>    2      0.320000      -0.151370  2
|1159>   f 1
|1160>    1      1.000000000    0.000000000 2
|1161> end
|1162> Ti>    4.00000000000    6.50803929747   -1.48054676798   -7.78013072764
|1163> NewECP
|1164> N_core 0
|1165>   lmax f
|1166>   s 2
|1167>    1      0.860000       9.191690  2
|1168>    2      0.172000       0.008301  2
|1169>   p 2
|1170>    1      0.860000      17.997720  2
|1171>    2      0.172000      -0.032600  2
|1172>   d 2
|1173>    1      1.600000      -9.504310  2
|1174>    2      0.320000      -0.151370  2
|1175>   f 1
|1176>    1      1.000000000    0.000000000 2
|1177> end
|1178> Ti>    4.00000000000   -6.50803929747   -1.48054676798   -7.78013072764
|1179> NewECP
|1180> N_core 0
|1181>   lmax f
|1182>   s 2
|1183>    1      0.860000       9.191690  2
|1184>    2      0.172000       0.008301  2
|1185>   p 2
|1186>    1      0.860000      17.997720  2
|1187>    2      0.172000      -0.032600  2
|1188>   d 2
|1189>    1      1.600000      -9.504310  2
|1190>    2      0.320000      -0.151370  2
|1191>   f 1
|1192>    1      1.000000000    0.000000000 2
|1193> end
|1194> Ti>    4.00000000000   -9.76205894620    2.96109353596   -1.27209143018
|1195> NewECP
|1196> N_core 0
|1197>   lmax f
|1198>   s 2
|1199>    1      0.860000       9.191690  2
|1200>    2      0.172000       0.008301  2
|1201>   p 2
|1202>    1      0.860000      17.997720  2
|1203>    2      0.172000      -0.032600  2
|1204>   d 2
|1205>    1      1.600000      -9.504310  2
|1206>    2      0.320000      -0.151370  2
|1207>   f 1
|1208>    1      1.000000000    0.000000000 2
|1209> end
|1210> Ti>    4.00000000000    9.76205894620    2.96109353596   -1.27209143018
|1211> NewECP
|1212> N_core 0
|1213>   lmax f
|1214>   s 2
|1215>    1      0.860000       9.191690  2
|1216>    2      0.172000       0.008301  2
|1217>   p 2
|1218>    1      0.860000      17.997720  2
|1219>    2      0.172000      -0.032600  2
|1220>   d 2
|1221>    1      1.600000      -9.504310  2
|1222>    2      0.320000      -0.151370  2
|1223>   f 1
|1224>    1      1.000000000    0.000000000 2
|1225> end
|1226> Ti>    4.00000000000    9.76205894620   -2.96109353596   -1.27209143018
|1227> NewECP
|1228> N_core 0
|1229>   lmax f
|1230>   s 2
|1231>    1      0.860000       9.191690  2
|1232>    2      0.172000       0.008301  2
|1233>   p 2
|1234>    1      0.860000      17.997720  2
|1235>    2      0.172000      -0.032600  2
|1236>   d 2
|1237>    1      1.600000      -9.504310  2
|1238>    2      0.320000      -0.151370  2
|1239>   f 1
|1240>    1      1.000000000    0.000000000 2
|1241> end
|1242> Ti>    4.00000000000   -9.76205894620   -2.96109353596   -1.27209143018
|1243> NewECP
|1244> N_core 0
|1245>   lmax f
|1246>   s 2
|1247>    1      0.860000       9.191690  2
|1248>    2      0.172000       0.008301  2
|1249>   p 2
|1250>    1      0.860000      17.997720  2
|1251>    2      0.172000      -0.032600  2
|1252>   d 2
|1253>    1      1.600000      -9.504310  2
|1254>    2      0.320000      -0.151370  2
|1255>   f 1
|1256>    1      1.000000000    0.000000000 2
|1257> end
|1258> Ti>    4.00000000000   -3.25401964873    5.92218707193   -7.78013072764
|1259> NewECP
|1260> N_core 0
|1261>   lmax f
|1262>   s 2
|1263>    1      0.860000       9.191690  2
|1264>    2      0.172000       0.008301  2
|1265>   p 2
|1266>    1      0.860000      17.997720  2
|1267>    2      0.172000      -0.032600  2
|1268>   d 2
|1269>    1      1.600000      -9.504310  2
|1270>    2      0.320000      -0.151370  2
|1271>   f 1
|1272>    1      1.000000000    0.000000000 2
|1273> end
|1274> Ti>    4.00000000000    3.25401964873    5.92218707193   -7.78013072764
|1275> NewECP
|1276> N_core 0
|1277>   lmax f
|1278>   s 2
|1279>    1      0.860000       9.191690  2
|1280>    2      0.172000       0.008301  2
|1281>   p 2
|1282>    1      0.860000      17.997720  2
|1283>    2      0.172000      -0.032600  2
|1284>   d 2
|1285>    1      1.600000      -9.504310  2
|1286>    2      0.320000      -0.151370  2
|1287>   f 1
|1288>    1      1.000000000    0.000000000 2
|1289> end
|1290> Ti>    4.00000000000    3.25401964873   -5.92218707193   -7.78013072764
|1291> NewECP
|1292> N_core 0
|1293>   lmax f
|1294>   s 2
|1295>    1      0.860000       9.191690  2
|1296>    2      0.172000       0.008301  2
|1297>   p 2
|1298>    1      0.860000      17.997720  2
|1299>    2      0.172000      -0.032600  2
|1300>   d 2
|1301>    1      1.600000      -9.504310  2
|1302>    2      0.320000      -0.151370  2
|1303>   f 1
|1304>    1      1.000000000    0.000000000 2
|1305> end
|1306> Ti>    4.00000000000   -3.25401964873   -5.92218707193   -7.78013072764
|1307> NewECP
|1308> N_core 0
|1309>   lmax f
|1310>   s 2
|1311>    1      0.860000       9.191690  2
|1312>    2      0.172000       0.008301  2
|1313>   p 2
|1314>    1      0.860000      17.997720  2
|1315>    2      0.172000      -0.032600  2
|1316>   d 2
|1317>    1      1.600000      -9.504310  2
|1318>    2      0.320000      -0.151370  2
|1319>   f 1
|1320>    1      1.000000000    0.000000000 2
|1321> end
|1322> Ti>    4.00000000000    0.00000000000    5.92218707193    8.48996751602
|1323> NewECP
|1324> N_core 0
|1325>   lmax f
|1326>   s 2
|1327>    1      0.860000       9.191690  2
|1328>    2      0.172000       0.008301  2
|1329>   p 2
|1330>    1      0.860000      17.997720  2
|1331>    2      0.172000      -0.032600  2
|1332>   d 2
|1333>    1      1.600000      -9.504310  2
|1334>    2      0.320000      -0.151370  2
|1335>   f 1
|1336>    1      1.000000000    0.000000000 2
|1337> end
|1338> Ti>    4.00000000000    0.00000000000   -5.92218707193    8.48996751602
|1339> NewECP
|1340> N_core 0
|1341>   lmax f
|1342>   s 2
|1343>    1      0.860000       9.191690  2
|1344>    2      0.172000       0.008301  2
|1345>   p 2
|1346>    1      0.860000      17.997720  2
|1347>    2      0.172000      -0.032600  2
|1348>   d 2
|1349>    1      1.600000      -9.504310  2
|1350>    2      0.320000      -0.151370  2
|1351>   f 1
|1352>    1      1.000000000    0.000000000 2
|1353> end
|1354> Ti>    4.00000000000    0.00000000000   10.36382737587   -1.27209143018
|1355> NewECP
|1356> N_core 0
|1357>   lmax f
|1358>   s 2
|1359>    1      0.860000       9.191690  2
|1360>    2      0.172000       0.008301  2
|1361>   p 2
|1362>    1      0.860000      17.997720  2
|1363>    2      0.172000      -0.032600  2
|1364>   d 2
|1365>    1      1.600000      -9.504310  2
|1366>    2      0.320000      -0.151370  2
|1367>   f 1
|1368>    1      1.000000000    0.000000000 2
|1369> end
|1370> Ti>    4.00000000000    0.00000000000  -10.36382737587   -1.27209143018
|1371> NewECP
|1372> N_core 0
|1373>   lmax f
|1374>   s 2
|1375>    1      0.860000       9.191690  2
|1376>    2      0.172000       0.008301  2
|1377>   p 2
|1378>    1      0.860000      17.997720  2
|1379>    2      0.172000      -0.032600  2
|1380>   d 2
|1381>    1      1.600000      -9.504310  2
|1382>    2      0.320000      -0.151370  2
|1383>   f 1
|1384>    1      1.000000000    0.000000000 2
|1385> end
|1386> Ti>    4.00000000000   -6.50803929747    0.00000000000    8.48996751602
|1387> NewECP
|1388> N_core 0
|1389>   lmax f
|1390>   s 2
|1391>    1      0.860000       9.191690  2
|1392>    2      0.172000       0.008301  2
|1393>   p 2
|1394>    1      0.860000      17.997720  2
|1395>    2      0.172000      -0.032600  2
|1396>   d 2
|1397>    1      1.600000      -9.504310  2
|1398>    2      0.320000      -0.151370  2
|1399>   f 1
|1400>    1      1.000000000    0.000000000 2
|1401> end
|1402> Ti>    4.00000000000    6.50803929747    0.00000000000    8.48996751602
|1403> NewECP
|1404> N_core 0
|1405>   lmax f
|1406>   s 2
|1407>    1      0.860000       9.191690  2
|1408>    2      0.172000       0.008301  2
|1409>   p 2
|1410>    1      0.860000      17.997720  2
|1411>    2      0.172000      -0.032600  2
|1412>   d 2
|1413>    1      1.600000      -9.504310  2
|1414>    2      0.320000      -0.151370  2
|1415>   f 1
|1416>    1      1.000000000    0.000000000 2
|1417> end
|1418> Ti>    4.00000000000    0.00000000000    7.40273383991   -7.78013072764
|1419> NewECP
|1420> N_core 0
|1421>   lmax f
|1422>   s 2
|1423>    1      0.860000       9.191690  2
|1424>    2      0.172000       0.008301  2
|1425>   p 2
|1426>    1      0.860000      17.997720  2
|1427>    2      0.172000      -0.032600  2
|1428>   d 2
|1429>    1      1.600000      -9.504310  2
|1430>    2      0.320000      -0.151370  2
|1431>   f 1
|1432>    1      1.000000000    0.000000000 2
|1433> end
|1434> Ti>    4.00000000000    0.00000000000   -7.40273383991   -7.78013072764
|1435> NewECP
|1436> N_core 0
|1437>   lmax f
|1438>   s 2
|1439>    1      0.860000       9.191690  2
|1440>    2      0.172000       0.008301  2
|1441>   p 2
|1442>    1      0.860000      17.997720  2
|1443>    2      0.172000      -0.032600  2
|1444>   d 2
|1445>    1      1.600000      -9.504310  2
|1446>    2      0.320000      -0.151370  2
|1447>   f 1
|1448>    1      1.000000000    0.000000000 2
|1449> end
|1450> Ti>    4.00000000000   -3.25401964873    8.88328060789    5.23594786729
|1451> NewECP
|1452> N_core 0
|1453>   lmax f
|1454>   s 2
|1455>    1      0.860000       9.191690  2
|1456>    2      0.172000       0.008301  2
|1457>   p 2
|1458>    1      0.860000      17.997720  2
|1459>    2      0.172000      -0.032600  2
|1460>   d 2
|1461>    1      1.600000      -9.504310  2
|1462>    2      0.320000      -0.151370  2
|1463>   f 1
|1464>    1      1.000000000    0.000000000 2
|1465> end
|1466> Ti>    4.00000000000    3.25401964873    8.88328060789    5.23594786729
|1467> NewECP
|1468> N_core 0
|1469>   lmax f
|1470>   s 2
|1471>    1      0.860000       9.191690  2
|1472>    2      0.172000       0.008301  2
|1473>   p 2
|1474>    1      0.860000      17.997720  2
|1475>    2      0.172000      -0.032600  2
|1476>   d 2
|1477>    1      1.600000      -9.504310  2
|1478>    2      0.320000      -0.151370  2
|1479>   f 1
|1480>    1      1.000000000    0.000000000 2
|1481> end
|1482> Ti>    4.00000000000    3.25401964873   -8.88328060789    5.23594786729
|1483> NewECP
|1484> N_core 0
|1485>   lmax f
|1486>   s 2
|1487>    1      0.860000       9.191690  2
|1488>    2      0.172000       0.008301  2
|1489>   p 2
|1490>    1      0.860000      17.997720  2
|1491>    2      0.172000      -0.032600  2
|1492>   d 2
|1493>    1      1.600000      -9.504310  2
|1494>    2      0.320000      -0.151370  2
|1495>   f 1
|1496>    1      1.000000000    0.000000000 2
|1497> end
|1498> Ti>    4.00000000000   -3.25401964873   -8.88328060789    5.23594786729
|1499> NewECP
|1500> N_core 0
|1501>   lmax f
|1502>   s 2
|1503>    1      0.860000       9.191690  2
|1504>    2      0.172000       0.008301  2
|1505>   p 2
|1506>    1      0.860000      17.997720  2
|1507>    2      0.172000      -0.032600  2
|1508>   d 2
|1509>    1      1.600000      -9.504310  2
|1510>    2      0.320000      -0.151370  2
|1511>   f 1
|1512>    1      1.000000000    0.000000000 2
|1513> end
|1514> Ti>    4.00000000000   -9.76205894620    1.48054676798   -4.52611107891
|1515> NewECP
|1516> N_core 0
|1517>   lmax f
|1518>   s 2
|1519>    1      0.860000       9.191690  2
|1520>    2      0.172000       0.008301  2
|1521>   p 2
|1522>    1      0.860000      17.997720  2
|1523>    2      0.172000      -0.032600  2
|1524>   d 2
|1525>    1      1.600000      -9.504310  2
|1526>    2      0.320000      -0.151370  2
|1527>   f 1
|1528>    1      1.000000000    0.000000000 2
|1529> end
|1530> Ti>    4.00000000000    9.76205894620    1.48054676798   -4.52611107891
|1531> NewECP
|1532> N_core 0
|1533>   lmax f
|1534>   s 2
|1535>    1      0.860000       9.191690  2
|1536>    2      0.172000       0.008301  2
|1537>   p 2
|1538>    1      0.860000      17.997720  2
|1539>    2      0.172000      -0.032600  2
|1540>   d 2
|1541>    1      1.600000      -9.504310  2
|1542>    2      0.320000      -0.151370  2
|1543>   f 1
|1544>    1      1.000000000    0.000000000 2
|1545> end
|1546> Ti>    4.00000000000    9.76205894620   -1.48054676798   -4.52611107891
|1547> NewECP
|1548> N_core 0
|1549>   lmax f
|1550>   s 2
|1551>    1      0.860000       9.191690  2
|1552>    2      0.172000       0.008301  2
|1553>   p 2
|1554>    1      0.860000      17.997720  2
|1555>    2      0.172000      -0.032600  2
|1556>   d 2
|1557>    1      1.600000      -9.504310  2
|1558>    2      0.320000      -0.151370  2
|1559>   f 1
|1560>    1      1.000000000    0.000000000 2
|1561> end
|1562> Ti>    4.00000000000   -9.76205894620   -1.48054676798   -4.52611107891
|1563> NewECP
|1564> N_core 0
|1565>   lmax f
|1566>   s 2
|1567>    1      0.860000       9.191690  2
|1568>    2      0.172000       0.008301  2
|1569>   p 2
|1570>    1      0.860000      17.997720  2
|1571>    2      0.172000      -0.032600  2
|1572>   d 2
|1573>    1      1.600000      -9.504310  2
|1574>    2      0.320000      -0.151370  2
|1575>   f 1
|1576>    1      1.000000000    0.000000000 2
|1577> end
|1578> Ti>    4.00000000000   -9.76205894620    4.44164030394    1.98192821856
|1579> NewECP
|1580> N_core 0
|1581>   lmax f
|1582>   s 2
|1583>    1      0.860000       9.191690  2
|1584>    2      0.172000       0.008301  2
|1585>   p 2
|1586>    1      0.860000      17.997720  2
|1587>    2      0.172000      -0.032600  2
|1588>   d 2
|1589>    1      1.600000      -9.504310  2
|1590>    2      0.320000      -0.151370  2
|1591>   f 1
|1592>    1      1.000000000    0.000000000 2
|1593> end
|1594> Ti>    4.00000000000    9.76205894620    4.44164030394    1.98192821856
|1595> NewECP
|1596> N_core 0
|1597>   lmax f
|1598>   s 2
|1599>    1      0.860000       9.191690  2
|1600>    2      0.172000       0.008301  2
|1601>   p 2
|1602>    1      0.860000      17.997720  2
|1603>    2      0.172000      -0.032600  2
|1604>   d 2
|1605>    1      1.600000      -9.504310  2
|1606>    2      0.320000      -0.151370  2
|1607>   f 1
|1608>    1      1.000000000    0.000000000 2
|1609> end
|1610> Ti>    4.00000000000    9.76205894620   -4.44164030394    1.98192821856
|1611> NewECP
|1612> N_core 0
|1613>   lmax f
|1614>   s 2
|1615>    1      0.860000       9.191690  2
|1616>    2      0.172000       0.008301  2
|1617>   p 2
|1618>    1      0.860000      17.997720  2
|1619>    2      0.172000      -0.032600  2
|1620>   d 2
|1621>    1      1.600000      -9.504310  2
|1622>    2      0.320000      -0.151370  2
|1623>   f 1
|1624>    1      1.000000000    0.000000000 2
|1625> end
|1626> Ti>    4.00000000000   -9.76205894620   -4.44164030394    1.98192821856
|1627> NewECP
|1628> N_core 0
|1629>   lmax f
|1630>   s 2
|1631>    1      0.860000       9.191690  2
|1632>    2      0.172000       0.008301  2
|1633>   p 2
|1634>    1      0.860000      17.997720  2
|1635>    2      0.172000      -0.032600  2
|1636>   d 2
|1637>    1      1.600000      -9.504310  2
|1638>    2      0.320000      -0.151370  2
|1639>   f 1
|1640>    1      1.000000000    0.000000000 2
|1641> end
|1642> Ti>    4.00000000000    0.00000000000    0.00000000000  -11.03415037637
|1643> NewECP
|1644> N_core 0
|1645>   lmax f
|1646>   s 2
|1647>    1      0.860000       9.191690  2
|1648>    2      0.172000       0.008301  2
|1649>   p 2
|1650>    1      0.860000      17.997720  2
|1651>    2      0.172000      -0.032600  2
|1652>   d 2
|1653>    1      1.600000      -9.504310  2
|1654>    2      0.320000      -0.151370  2
|1655>   f 1
|1656>    1      1.000000000    0.000000000 2
|1657> end
|1658> Ti>    4.00000000000   -3.25401964873   10.36382737587    1.98192821856
|1659> NewECP
|1660> N_core 0
|1661>   lmax f
|1662>   s 2
|1663>    1      0.860000       9.191690  2
|1664>    2      0.172000       0.008301  2
|1665>   p 2
|1666>    1      0.860000      17.997720  2
|1667>    2      0.172000      -0.032600  2
|1668>   d 2
|1669>    1      1.600000      -9.504310  2
|1670>    2      0.320000      -0.151370  2
|1671>   f 1
|1672>    1      1.000000000    0.000000000 2
|1673> end
|1674> Ti>    4.00000000000    3.25401964873   10.36382737587    1.98192821856
|1675> NewECP
|1676> N_core 0
|1677>   lmax f
|1678>   s 2
|1679>    1      0.860000       9.191690  2
|1680>    2      0.172000       0.008301  2
|1681>   p 2
|1682>    1      0.860000      17.997720  2
|1683>    2      0.172000      -0.032600  2
|1684>   d 2
|1685>    1      1.600000      -9.504310  2
|1686>    2      0.320000      -0.151370  2
|1687>   f 1
|1688>    1      1.000000000    0.000000000 2
|1689> end
|1690> Ti>    4.00000000000    3.25401964873  -10.36382737587    1.98192821856
|1691> NewECP
|1692> N_core 0
|1693>   lmax f
|1694>   s 2
|1695>    1      0.860000       9.191690  2
|1696>    2      0.172000       0.008301  2
|1697>   p 2
|1698>    1      0.860000      17.997720  2
|1699>    2      0.172000      -0.032600  2
|1700>   d 2
|1701>    1      1.600000      -9.504310  2
|1702>    2      0.320000      -0.151370  2
|1703>   f 1
|1704>    1      1.000000000    0.000000000 2
|1705> end
|1706> Ti>    4.00000000000   -3.25401964873  -10.36382737587    1.98192821856
|1707> NewECP
|1708> N_core 0
|1709>   lmax f
|1710>   s 2
|1711>    1      0.860000       9.191690  2
|1712>    2      0.172000       0.008301  2
|1713>   p 2
|1714>    1      0.860000      17.997720  2
|1715>    2      0.172000      -0.032600  2
|1716>   d 2
|1717>    1      1.600000      -9.504310  2
|1718>    2      0.320000      -0.151370  2
|1719>   f 1
|1720>    1      1.000000000    0.000000000 2
|1721> end
|1722> Ti>    4.00000000000   -6.50803929747    4.44164030394   -7.78013072764
|1723> NewECP
|1724> N_core 0
|1725>   lmax f
|1726>   s 2
|1727>    1      0.860000       9.191690  2
|1728>    2      0.172000       0.008301  2
|1729>   p 2
|1730>    1      0.860000      17.997720  2
|1731>    2      0.172000      -0.032600  2
|1732>   d 2
|1733>    1      1.600000      -9.504310  2
|1734>    2      0.320000      -0.151370  2
|1735>   f 1
|1736>    1      1.000000000    0.000000000 2
|1737> end
|1738> Ti>    4.00000000000    6.50803929747    4.44164030394   -7.78013072764
|1739> NewECP
|1740> N_core 0
|1741>   lmax f
|1742>   s 2
|1743>    1      0.860000       9.191690  2
|1744>    2      0.172000       0.008301  2
|1745>   p 2
|1746>    1      0.860000      17.997720  2
|1747>    2      0.172000      -0.032600  2
|1748>   d 2
|1749>    1      1.600000      -9.504310  2
|1750>    2      0.320000      -0.151370  2
|1751>   f 1
|1752>    1      1.000000000    0.000000000 2
|1753> end
|1754> Ti>    4.00000000000    6.50803929747   -4.44164030394   -7.78013072764
|1755> NewECP
|1756> N_core 0
|1757>   lmax f
|1758>   s 2
|1759>    1      0.860000       9.191690  2
|1760>    2      0.172000       0.008301  2
|1761>   p 2
|1762>    1      0.860000      17.997720  2
|1763>    2      0.172000      -0.032600  2
|1764>   d 2
|1765>    1      1.600000      -9.504310  2
|1766>    2      0.320000      -0.151370  2
|1767>   f 1
|1768>    1      1.000000000    0.000000000 2
|1769> end
|1770> Ti>    4.00000000000   -6.50803929747   -4.44164030394   -7.78013072764
|1771> NewECP
|1772> N_core 0
|1773>   lmax f
|1774>   s 2
|1775>    1      0.860000       9.191690  2
|1776>    2      0.172000       0.008301  2
|1777>   p 2
|1778>    1      0.860000      17.997720  2
|1779>    2      0.172000      -0.032600  2
|1780>   d 2
|1781>    1      1.600000      -9.504310  2
|1782>    2      0.320000      -0.151370  2
|1783>   f 1
|1784>    1      1.000000000    0.000000000 2
|1785> end
|1786> Ti>    4.00000000000   -9.76205894620    0.00000000000    5.23594786729
|1787> NewECP
|1788> N_core 0
|1789>   lmax f
|1790>   s 2
|1791>    1      0.860000       9.191690  2
|1792>    2      0.172000       0.008301  2
|1793>   p 2
|1794>    1      0.860000      17.997720  2
|1795>    2      0.172000      -0.032600  2
|1796>   d 2
|1797>    1      1.600000      -9.504310  2
|1798>    2      0.320000      -0.151370  2
|1799>   f 1
|1800>    1      1.000000000    0.000000000 2
|1801> end
|1802> Ti>    4.00000000000    9.76205894620    0.00000000000    5.23594786729
|1803> NewECP
|1804> N_core 0
|1805>   lmax f
|1806>   s 2
|1807>    1      0.860000       9.191690  2
|1808>    2      0.172000       0.008301  2
|1809>   p 2
|1810>    1      0.860000      17.997720  2
|1811>    2      0.172000      -0.032600  2
|1812>   d 2
|1813>    1      1.600000      -9.504310  2
|1814>    2      0.320000      -0.151370  2
|1815>   f 1
|1816>    1      1.000000000    0.000000000 2
|1817> end
|1818> Ti>    4.00000000000   -6.50803929747    2.96109353596    8.48996751602
|1819> NewECP
|1820> N_core 0
|1821>   lmax f
|1822>   s 2
|1823>    1      0.860000       9.191690  2
|1824>    2      0.172000       0.008301  2
|1825>   p 2
|1826>    1      0.860000      17.997720  2
|1827>    2      0.172000      -0.032600  2
|1828>   d 2
|1829>    1      1.600000      -9.504310  2
|1830>    2      0.320000      -0.151370  2
|1831>   f 1
|1832>    1      1.000000000    0.000000000 2
|1833> end
|1834> Ti>    4.00000000000    6.50803929747    2.96109353596    8.48996751602
|1835> NewECP
|1836> N_core 0
|1837>   lmax f
|1838>   s 2
|1839>    1      0.860000       9.191690  2
|1840>    2      0.172000       0.008301  2
|1841>   p 2
|1842>    1      0.860000      17.997720  2
|1843>    2      0.172000      -0.032600  2
|1844>   d 2
|1845>    1      1.600000      -9.504310  2
|1846>    2      0.320000      -0.151370  2
|1847>   f 1
|1848>    1      1.000000000    0.000000000 2
|1849> end
|1850> Ti>    4.00000000000    6.50803929747   -2.96109353596    8.48996751602
|1851> NewECP
|1852> N_core 0
|1853>   lmax f
|1854>   s 2
|1855>    1      0.860000       9.191690  2
|1856>    2      0.172000       0.008301  2
|1857>   p 2
|1858>    1      0.860000      17.997720  2
|1859>    2      0.172000      -0.032600  2
|1860>   d 2
|1861>    1      1.600000      -9.504310  2
|1862>    2      0.320000      -0.151370  2
|1863>   f 1
|1864>    1      1.000000000    0.000000000 2
|1865> end
|1866> Ti>    4.00000000000   -6.50803929747   -2.96109353596    8.48996751602
|1867> NewECP
|1868> N_core 0
|1869>   lmax f
|1870>   s 2
|1871>    1      0.860000       9.191690  2
|1872>    2      0.172000       0.008301  2
|1873>   p 2
|1874>    1      0.860000      17.997720  2
|1875>    2      0.172000      -0.032600  2
|1876>   d 2
|1877>    1      1.600000      -9.504310  2
|1878>    2      0.320000      -0.151370  2
|1879>   f 1
|1880>    1      1.000000000    0.000000000 2
|1881> end
|1882> Ti>    4.00000000000   -6.50803929747    7.40273383991    5.23594786729
|1883> NewECP
|1884> N_core 0
|1885>   lmax f
|1886>   s 2
|1887>    1      0.860000       9.191690  2
|1888>    2      0.172000       0.008301  2
|1889>   p 2
|1890>    1      0.860000      17.997720  2
|1891>    2      0.172000      -0.032600  2
|1892>   d 2
|1893>    1      1.600000      -9.504310  2
|1894>    2      0.320000      -0.151370  2
|1895>   f 1
|1896>    1      1.000000000    0.000000000 2
|1897> end
[...]
590 Q      0.0000     4.0000     4.0000     0.0000     0.0000     0.0000
591 Q      0.0000     4.0000     4.0000     0.0000     0.0000     0.0000
592 Q      0.0000     4.0000     4.0000     0.0000     0.0000     0.0000
593 Q      0.0000     4.0000     4.0000     0.0000     0.0000     0.0000
594 Q      0.0000     4.0000     4.0000     0.0000     0.0000     0.0000
595 Q      0.0000     4.0000     4.0000     0.0000     0.0000     0.0000
596 Q      0.0000     4.0000     4.0000     0.0000     0.0000     0.0000
597 Q      0.0000     4.0000     4.0000     0.0000     0.0000     0.0000
598 Q      0.0000     4.0000     4.0000     0.0000     0.0000     0.0000
599 Q      0.0000     4.0000     4.0000     0.0000     0.0000     0.0000
600 Q      0.0000     4.0000     4.0000     0.0000     0.0000     0.0000
601 Q      0.0000     4.0000     4.0000     0.0000     0.0000     0.0000
602 Q      0.0000     4.0000     4.0000     0.0000     0.0000     0.0000
603 Q      0.0000     4.0000     4.0000     0.0000     0.0000     0.0000
604 Q      0.0000     4.0000     4.0000     0.0000     0.0000     0.0000
605 Q      0.0000     4.0000     4.0000     0.0000     0.0000     0.0000
606 Q      0.0000     4.0000     4.0000     0.0000     0.0000     0.0000
607 Q      0.0000     4.0000     4.0000     0.0000     0.0000     0.0000
608 Q      0.0000     4.0000     4.0000     0.0000     0.0000     0.0000
609 Q      0.0000     4.0000     4.0000     0.0000     0.0000     0.0000
610 Q      0.0000     4.0000     4.0000     0.0000     0.0000     0.0000
611 Q      0.0000     4.0000     4.0000     0.0000     0.0000     0.0000
612 Q      0.0000     4.0000     4.0000     0.0000     0.0000     0.0000
613 Q      0.0000     4.0000     4.0000     0.0000     0.0000     0.0000
614 Q      0.0000     4.0000     4.0000     0.0000     0.0000     0.0000
615 Q      0.0000     4.0000     4.0000     0.0000     0.0000     0.0000
616 Q      0.0000     4.0000     4.0000     0.0000     0.0000     0.0000
617 Q      0.0000     4.0000     4.0000     0.0000     0.0000     0.0000
618 Q      0.0000     4.0000     4.0000     0.0000     0.0000     0.0000
619 Q      0.0000     4.0000     4.0000     0.0000     0.0000     0.0000
620 Q      0.0000     4.0000     4.0000     0.0000     0.0000     0.0000
621 Q      0.0000     4.0000     4.0000     0.0000     0.0000     0.0000
622 Q      0.0000     4.0000     4.0000     0.0000     0.0000     0.0000
623 Q      0.0000     4.0000     4.0000     0.0000     0.0000     0.0000
624 Q      0.0000     4.0000     4.0000     0.0000     0.0000     0.0000
625 Q      0.0000     4.0000     4.0000     0.0000     0.0000     0.0000
626 Q      0.0000     4.0000     4.0000     0.0000     0.0000     0.0000
627 Q      0.0000     4.0000     4.0000     0.0000     0.0000     0.0000
628 Q      0.0000     4.0000     4.0000     0.0000     0.0000     0.0000
629 Q      0.0000     4.0000     4.0000     0.0000     0.0000     0.0000
630 Q      0.0000     4.0000     4.0000     0.0000     0.0000     0.0000
631 Q      0.0000     4.0000     4.0000     0.0000     0.0000     0.0000
632 Q      0.0000     4.0000     4.0000     0.0000     0.0000     0.0000

  Mayer bond orders larger than 0.100000
B(  1-Ti,  2-Ti) :   0.2606 B(  1-Ti,  3-Ti) :   0.2511 B(  1-Ti,  4-O ) :   0.6836 
B(  1-Ti,  9-O ) :   0.4568 B(  1-Ti, 10-O ) :   0.4568 B(  1-Ti, 13-O ) :   0.6122 
B(  1-Ti, 21-O ) :   0.5739 B(  1-Ti, 41-Ti) :   0.1381 B(  2-Ti,  3-Ti) :   0.2510 
B(  2-Ti,  4-O ) :   0.6836 B(  2-Ti, 11-O ) :   0.4568 B(  2-Ti, 12-O ) :   0.4569 
B(  2-Ti, 14-O ) :   0.6122 B(  2-Ti, 22-O ) :   0.5739 B(  2-Ti, 42-Ti) :   0.1381 
B(  3-Ti,  5-O ) :   0.6570 B(  3-Ti,  6-O ) :   0.6570 B(  3-Ti,  7-O ) :   0.6570 
B(  3-Ti,  8-O ) :   0.6570 B(  3-Ti, 19-Ti) :   0.1209 B(  3-Ti, 20-Ti) :   0.1208 
B(  3-Ti, 23-O ) :   0.3900 B(  4-O , 32-Ti) :   0.6365 B(  5-O , 19-Ti) :   0.7302 
B(  5-O , 24-Ti) :   0.5753 B(  6-O , 19-Ti) :   0.7302 B(  6-O , 25-Ti) :   0.5753 
B(  7-O , 20-Ti) :   0.7302 B(  7-O , 26-Ti) :   0.5753 B(  8-O , 20-Ti) :   0.7302 
B(  8-O , 27-Ti) :   0.5753 B(  9-O , 17-Ti) :   0.6967 B(  9-O , 33-Ti) :   0.7806 
B( 10-O , 18-Ti) :   0.6968 B( 10-O , 34-Ti) :   0.7806 B( 11-O , 18-Ti) :   0.6967 
B( 11-O , 35-Ti) :   0.7806 B( 12-O , 17-Ti) :   0.6967 B( 12-O , 36-Ti) :   0.7806 
B( 13-O , 19-Ti) :   0.5673 B( 13-O , 41-Ti) :   0.7896 B( 14-O , 20-Ti) :   0.5673 
B( 14-O , 42-Ti) :   0.7896 B( 15-O , 17-Ti) :   0.4970 B( 15-O , 24-Ti) :   0.7383 
B( 15-O , 27-Ti) :   0.7383 B( 16-O , 18-Ti) :   0.4970 B( 16-O , 25-Ti) :   0.7382 
B( 16-O , 26-Ti) :   0.7382 B( 17-Ti, 33-Ti) :   0.1466 B( 17-Ti, 36-Ti) :   0.1467 
B( 17-Ti, 39-O ) :   0.3903 B( 17-Ti, 43-O ) :   0.5429 B( 17-Ti, 46-O ) :   0.5429 
B( 17-Ti,131-O ) :  -0.1078 B( 18-Ti, 34-Ti) :   0.1467 B( 18-Ti, 35-Ti) :   0.1467 
B( 18-Ti, 40-O ) :   0.3903 B( 18-Ti, 44-O ) :   0.5430 B( 18-Ti, 45-O ) :   0.5430 
B( 18-Ti,132-O ) :  -0.1078 B( 19-Ti, 51-O ) :   0.4129 B( 19-Ti, 53-O ) :   0.5366 
B( 19-Ti, 54-O ) :   0.5366 B( 19-Ti,141-O ) :  -0.1298 B( 20-Ti, 52-O ) :   0.4129 
B( 20-Ti, 55-O ) :   0.5366 B( 20-Ti, 56-O ) :   0.5366 B( 20-Ti,142-O ) :  -0.1298 
B( 21-O , 41-Ti) :   0.7501 B( 21-O , 61-Ti) :   0.7256 B( 22-O , 42-Ti) :   0.7501 
B( 22-O , 62-Ti) :   0.7256 B( 23-O , 63-Ti) :   0.7852 B( 23-O , 64-Ti) :   0.7851 
B( 24-Ti, 27-Ti) :   0.1602 B( 24-Ti, 28-O ) :   0.6175 B( 24-Ti, 37-O ) :   0.6584 
B( 24-Ti, 65-O ) :   0.5108 B( 24-Ti, 81-O ) :   0.3520 B( 25-Ti, 26-Ti) :   0.1603 
B( 25-Ti, 29-O ) :   0.6176 B( 25-Ti, 38-O ) :   0.6584 B( 25-Ti, 66-O ) :   0.5108 
B( 25-Ti, 82-O ) :   0.3520 B( 26-Ti, 30-O ) :   0.6175 B( 26-Ti, 38-O ) :   0.6584 
B( 26-Ti, 67-O ) :   0.5108 B( 26-Ti, 83-O ) :   0.3520 B( 27-Ti, 31-O ) :   0.6176 
B( 27-Ti, 37-O ) :   0.6584 B( 27-Ti, 68-O ) :   0.5108 B( 27-Ti, 84-O ) :   0.3520 
B( 28-O , 33-Ti) :   0.5662 B( 28-O , 85-Ti) :   0.8485 B( 29-O , 34-Ti) :   0.5662 
B( 29-O , 86-Ti) :   0.8485 B( 30-O , 35-Ti) :   0.5662 B( 30-O , 87-Ti) :   0.8485 
B( 31-O , 36-Ti) :   0.5662 B( 31-O , 88-Ti) :   0.8485 B( 32-Ti, 47-O ) :   0.6189 
B( 32-Ti, 48-O ) :   0.6189 B( 32-Ti, 49-O ) :   0.6189 B( 32-Ti, 50-O ) :   0.6189 
B( 32-Ti,108-O ) :   0.3517 B( 33-Ti, 43-O ) :   0.7128 B( 33-Ti, 57-O ) :   0.6754 
B( 33-Ti, 69-O ) :   0.4649 B( 33-Ti, 97-O ) :   0.4235 B( 34-Ti, 44-O ) :   0.7128 
B( 34-Ti, 58-O ) :   0.6754 B( 34-Ti, 70-O ) :   0.4649 B( 34-Ti, 98-O ) :   0.4234 
B( 35-Ti, 45-O ) :   0.7128 B( 35-Ti, 59-O ) :   0.6754 B( 35-Ti, 71-O ) :   0.4649 
B( 35-Ti, 99-O ) :   0.4234 B( 36-Ti, 46-O ) :   0.7128 B( 36-Ti, 60-O ) :   0.6754 
B( 36-Ti, 72-O ) :   0.4649 B( 36-Ti,100-O ) :   0.4234 B( 37-O , 91-Ti) :   0.7205 
B( 38-O , 92-Ti) :   0.7205 B( 39-O , 73-Ti) :   0.8049 B( 39-O , 76-Ti) :   0.8049 
B( 40-O , 74-Ti) :   0.8049 B( 40-O , 75-Ti) :   0.8049 B( 41-Ti, 57-O ) :   0.5592 
B( 41-Ti, 58-O ) :   0.5592 B( 41-Ti, 89-O ) :   0.5202 B( 41-Ti, 95-O ) :   0.4574 
B( 41-Ti,193-O ) :  -0.1084 B( 41-Ti,194-O ) :  -0.1084 B( 42-Ti, 59-O ) :   0.5592 
B( 42-Ti, 60-O ) :   0.5592 B( 42-Ti, 90-O ) :   0.5202 B( 42-Ti, 96-O ) :   0.4574 
B( 42-Ti,195-O ) :  -0.1084 B( 42-Ti,196-O ) :  -0.1084 B( 43-O ,115-Ti) :   0.7456 
B( 44-O ,116-Ti) :   0.7456 B( 45-O ,117-Ti) :   0.7456 B( 46-O ,118-Ti) :   0.7456 
B( 47-O , 61-Ti) :   0.7760 B( 47-O , 73-Ti) :   0.7393 B( 48-O , 61-Ti) :   0.7759 
B( 48-O , 74-Ti) :   0.7393 B( 49-O , 62-Ti) :   0.7759 B( 49-O , 75-Ti) :   0.7393 
B( 50-O , 62-Ti) :   0.7759 B( 50-O , 76-Ti) :   0.7393 B( 51-O , 63-Ti) :   0.7259 
B( 51-O ,125-Ti) :   0.9126 B( 52-O , 64-Ti) :   0.7259 B( 52-O ,126-Ti) :   0.9126 
B( 53-O , 85-Ti) :   0.7317 B( 53-O , 93-Ti) :   0.8035 B( 54-O , 86-Ti) :   0.7317 
B( 54-O , 93-Ti) :   0.8035 B( 55-O , 87-Ti) :   0.7317 B( 55-O , 94-Ti) :   0.8035 
B( 56-O , 88-Ti) :   0.7317 B( 56-O , 94-Ti) :   0.8035 B( 57-O ,127-Ti) :   0.7925 
B( 58-O ,128-Ti) :   0.7925 B( 59-O ,129-Ti) :   0.7925 B( 60-O ,130-Ti) :   0.7925 
B( 61-Ti,101-O ) :   0.7394 B( 61-Ti,102-O ) :   0.7394 B( 61-Ti,161-O ) :   0.6687 
B( 62-Ti,103-O ) :   0.7394 B( 62-Ti,104-O ) :   0.7394 B( 62-Ti,162-O ) :   0.6687 
B( 63-Ti, 77-O ) :   0.6580 B( 63-Ti, 78-O ) :   0.6580 B( 63-Ti,105-O ) :   0.6938 
B( 63-Ti,155-O ) :   0.7062 B( 64-Ti, 79-O ) :   0.6581 B( 64-Ti, 80-O ) :   0.6580 
B( 64-Ti,105-O ) :   0.6938 B( 64-Ti,156-O ) :   0.7063 B( 65-O , 85-Ti) :   0.8204 
B( 65-O ,121-Ti) :   0.7300 B( 66-O , 86-Ti) :   0.8204 B( 66-O ,122-Ti) :   0.7300 
B( 67-O , 87-Ti) :   0.8204 B( 67-O ,123-Ti) :   0.7300 B( 68-O , 88-Ti) :   0.8204 
B( 68-O ,124-Ti) :   0.7300 B( 69-O , 73-Ti) :   0.7692 B( 69-O ,143-Ti) :   0.8595 
B( 70-O , 74-Ti) :   0.7692 B( 70-O ,144-Ti) :   0.8595 B( 71-O , 75-Ti) :   0.7692 
B( 71-O ,145-Ti) :   0.8595 B( 72-O , 76-Ti) :   0.7692 B( 72-O ,146-Ti) :   0.8595 
B( 73-Ti,109-O ) :   0.6847 B( 73-Ti,137-O ) :   0.5501 B( 73-Ti,163-O ) :   0.7735 
B( 74-Ti,110-O ) :   0.6847 B( 74-Ti,138-O ) :   0.5501 B( 74-Ti,164-O ) :   0.7735 
B( 75-Ti,110-O ) :   0.6847 B( 75-Ti,139-O ) :   0.5501 B( 75-Ti,165-O ) :   0.7735 
B( 76-Ti,109-O ) :   0.6847 B( 76-Ti,140-O ) :   0.5501 B( 76-Ti,166-O ) :   0.7735 
B( 77-O , 91-Ti) :   0.7572 B( 77-O ,121-Ti) :   0.7759 B( 78-O , 92-Ti) :   0.7572 
B( 78-O ,122-Ti) :   0.7759 B( 79-O , 92-Ti) :   0.7572 B( 79-O ,123-Ti) :   0.7759 
B( 80-O , 91-Ti) :   0.7572 B( 80-O ,124-Ti) :   0.7759 B( 81-O ,119-Ti) :   0.7736 
B( 81-O ,167-Ti) :   0.8949 B( 82-O ,120-Ti) :   0.7736 B( 82-O ,168-Ti) :   0.8949 
B( 83-O ,120-Ti) :   0.7736 B( 83-O ,169-Ti) :   0.8949 B( 84-O ,119-Ti) :   0.7736 
B( 84-O ,170-Ti) :   0.8949 B( 85-Ti,111-O ) :   0.7019 B( 85-Ti,151-O ) :   0.7206 
B( 85-Ti,173-O ) :   0.6127 B( 85-Ti,227-Ti) :   0.1032 B( 86-Ti,112-O ) :   0.7019 
B( 86-Ti,152-O ) :   0.7206 B( 86-Ti,174-O ) :   0.6127 B( 86-Ti,228-Ti) :   0.1032 
B( 87-Ti,113-O ) :   0.7019 B( 87-Ti,153-O ) :   0.7206 B( 87-Ti,175-O ) :   0.6127 
B( 87-Ti,229-Ti) :   0.1032 B( 88-Ti,114-O ) :   0.7019 B( 88-Ti,154-O ) :   0.7206 
B( 88-Ti,176-O ) :   0.6127 B( 88-Ti,230-Ti) :   0.1032 B( 89-O , 93-Ti) :   0.6961 
B( 89-O ,181-Ti) :   0.8738 B( 90-O , 94-Ti) :   0.6961 B( 90-O ,182-Ti) :   0.8738 
B( 91-Ti,133-O ) :   0.6822 B( 91-Ti,136-O ) :   0.6822 B( 91-Ti,197-O ) :   0.7344 
B( 92-Ti,134-O ) :   0.6822 B( 92-Ti,135-O ) :   0.6822 B( 92-Ti,198-O ) :   0.7344 
B( 93-Ti,141-O ) :   0.7672 B( 93-Ti,189-O ) :   0.7482 B( 93-Ti,190-O ) :   0.7482 
B( 94-Ti,142-O ) :   0.7672 B( 94-Ti,191-O ) :   0.7482 B( 94-Ti,192-O ) :   0.7482 
B( 95-O ,171-Ti) :   0.7013 B( 95-O ,181-Ti) :   0.8890 B( 96-O ,172-Ti) :   0.7013 
B( 96-O ,182-Ti) :   0.8890 B( 97-O ,127-Ti) :   0.7206 B( 97-O ,203-Ti) :   0.8533 
B( 98-O ,128-Ti) :   0.7206 B( 98-O ,204-Ti) :   0.8533 B( 99-O ,129-Ti) :   0.7206 
B( 99-O ,205-Ti) :   0.8534 B(100-O ,130-Ti) :   0.7206 B(100-O ,206-Ti) :   0.8534 
B(101-O ,143-Ti) :   0.6856 B(101-O ,171-Ti) :   0.7013 B(102-O ,144-Ti) :   0.6856 
B(102-O ,171-Ti) :   0.7013 B(103-O ,145-Ti) :   0.6856 B(103-O ,172-Ti) :   0.7013 
B(104-O ,146-Ti) :   0.6856 B(104-O ,172-Ti) :   0.7013 B(105-O ,245-Ti) :   0.7050 
B(106-O ,115-Ti) :   0.7520 B(106-O ,118-Ti) :   0.7520 B(106-O ,119-Ti) :   0.7060 
B(107-O ,116-Ti) :   0.7520 B(107-O ,117-Ti) :   0.7520 B(107-O ,120-Ti) :   0.7060 
B(108-O ,199-Ti) :   0.8478 B(108-O ,200-Ti) :   0.8478 B(109-O ,231-Ti) :   0.7541 
B(110-O ,232-Ti) :   0.7541 B(111-O ,127-Ti) :   0.6053 B(111-O ,227-Ti) :   0.8706 
B(112-O ,128-Ti) :   0.6053 B(112-O ,228-Ti) :   0.8706 B(113-O ,129-Ti) :   0.6053 
B(113-O ,229-Ti) :   0.8706 B(114-O ,130-Ti) :   0.6053 B(114-O ,230-Ti) :   0.8706 
B(115-Ti,131-O ) :   0.7148 B(115-Ti,157-O ) :   0.6877 B(115-Ti,183-O ) :   0.6481 
B(115-Ti,254-O ) :   0.7951 B(116-Ti,132-O ) :   0.7148 B(116-Ti,158-O ) :   0.6877 
B(116-Ti,184-O ) :   0.6481 B(116-Ti,255-O ) :   0.7951 B(117-Ti,132-O ) :   0.7148 
B(117-Ti,159-O ) :   0.6877 B(117-Ti,185-O ) :   0.6481 B(117-Ti,256-O ) :   0.7952 
B(118-Ti,131-O ) :   0.7148 B(118-Ti,160-O ) :   0.6877 B(118-Ti,186-O ) :   0.6481 
B(118-Ti,257-O ) :   0.7951 B(119-Ti,187-O ) :   0.5847 B(119-Ti,207-O ) :   0.7962 
B(119-Ti,210-O ) :   0.7962 B(120-Ti,188-O ) :   0.5847 B(120-Ti,208-O ) :   0.7962 
B(120-Ti,209-O ) :   0.7962 B(121-Ti,133-O ) :   0.7115 B(121-Ti,147-O ) :   0.6859 
B(121-Ti,219-O ) :   0.6683 B(121-Ti,233-O ) :   0.7574 B(122-Ti,134-O ) :   0.7115 
B(122-Ti,148-O ) :   0.6859 B(122-Ti,220-O ) :   0.6683 B(122-Ti,234-O ) :   0.7574 
B(123-Ti,135-O ) :   0.7115 B(123-Ti,149-O ) :   0.6859 B(123-Ti,221-O ) :   0.6684 
B(123-Ti,235-O ) :   0.7574 B(124-Ti,136-O ) :   0.7115 B(124-Ti,150-O ) :   0.6859 
B(124-Ti,222-O ) :   0.6683 B(124-Ti,236-O ) :   0.7574 B(125-Ti,141-O ) :   0.8303 
B(125-Ti,147-O ) :   0.6130 B(125-Ti,148-O ) :   0.6130 B(125-Ti,155-O ) :   0.7763 
B(126-Ti,142-O ) :   0.8302 B(126-Ti,149-O ) :   0.6130 B(126-Ti,150-O ) :   0.6130 
B(126-Ti,156-O ) :   0.7763 B(127-Ti,177-O ) :   0.7201 B(127-Ti,193-O ) :   0.8186 
B(127-Ti,258-O ) :   0.9168 B(128-Ti,178-O ) :   0.7201 B(128-Ti,194-O ) :   0.8186 
B(128-Ti,259-O ) :   0.9168 B(129-Ti,179-O ) :   0.7201 B(129-Ti,195-O ) :   0.8186 
B(129-Ti,260-O ) :   0.9168 B(130-Ti,180-O ) :   0.7201 B(130-Ti,196-O ) :   0.8186 
B(130-Ti,261-O ) :   0.9168 B(131-O ,201-Ti) :   0.7732 B(132-O ,202-Ti) :   0.7732 
B(133-O ,241-Ti) :   0.7794 B(134-O ,242-Ti) :   0.7794 B(135-O ,243-Ti) :   0.7794 
B(136-O ,244-Ti) :   0.7794 B(137-O ,201-Ti) :   0.7851 B(137-O ,237-Ti) :   0.7864 
B(138-O ,202-Ti) :   0.7851 B(138-O ,238-Ti) :   0.7864 B(139-O ,202-Ti) :   0.7851 
B(139-O ,239-Ti) :   0.7864 B(140-O ,201-Ti) :   0.7851 B(140-O ,240-Ti) :   0.7864 
B(143-Ti,163-O ) :   0.7575 B(143-Ti,177-O ) :   0.8016 B(143-Ti,223-O ) :   0.6529 
B(144-Ti,164-O ) :   0.7575 B(144-Ti,178-O ) :   0.8016 B(144-Ti,224-O ) :   0.6529 
B(145-Ti,165-O ) :   0.7575 B(145-Ti,179-O ) :   0.8016 B(145-Ti,225-O ) :   0.6529 
B(146-Ti,166-O ) :   0.7575 B(146-Ti,180-O ) :   0.8016 B(146-Ti,226-O ) :   0.6529 
B(147-O ,246-Ti) :   0.8603 B(148-O ,247-Ti) :   0.8603 B(149-O ,248-Ti) :   0.8603 
B(150-O ,249-Ti) :   0.8603 B(151-O ,167-Ti) :   0.8220 B(152-O ,168-Ti) :   0.8220 
B(153-O ,169-Ti) :   0.8220 B(154-O ,170-Ti) :   0.8220 B(157-O ,167-Ti) :   0.6173 
B(157-O ,203-Ti) :   0.8743 B(158-O ,168-Ti) :   0.6173 B(158-O ,204-Ti) :   0.8743 
B(159-O ,169-Ti) :   0.6173 B(159-O ,205-Ti) :   0.8743 B(160-O ,170-Ti) :   0.6173 
B(160-O ,206-Ti) :   0.8743 B(161-O ,199-Ti) :   0.8199 B(162-O ,200-Ti) :   0.8199 
B(167-Ti,207-O ) :   0.7594 B(167-Ti,215-O ) :   0.6322 B(168-Ti,208-O ) :   0.7594 
B(168-Ti,216-O ) :   0.6322 B(169-Ti,209-O ) :   0.7594 B(169-Ti,217-O ) :   0.6322 
B(170-Ti,210-O ) :   0.7594 B(170-Ti,218-O ) :   0.6322 B(171-Ti,262-O ) :   0.8455 
B(171-Ti,263-O ) :   0.8455 B(172-Ti,264-O ) :   0.8455 B(172-Ti,265-O ) :   0.8455 
B(173-O ,227-Ti) :   0.7931 B(173-O ,246-Ti) :   0.6907 B(174-O ,228-Ti) :   0.7931 
B(174-O ,247-Ti) :   0.6907 B(175-O ,229-Ti) :   0.7931 B(175-O ,248-Ti) :   0.6907 
B(176-O ,230-Ti) :   0.7931 B(176-O ,249-Ti) :   0.6907 B(181-Ti,193-O ) :   0.7590 
B(181-Ti,194-O ) :   0.7590 B(182-Ti,195-O ) :   0.7590 B(182-Ti,196-O ) :   0.7590 
B(183-O ,203-Ti) :   0.8498 B(183-O ,237-Ti) :   0.6791 B(184-O ,204-Ti) :   0.8498 
B(184-O ,238-Ti) :   0.6791 B(185-O ,205-Ti) :   0.8498 B(185-O ,239-Ti) :   0.6791 
B(186-O ,206-Ti) :   0.8498 B(186-O ,240-Ti) :   0.6791 B(187-O ,241-Ti) :   0.7729 
B(187-O ,244-Ti) :   0.7729 B(188-O ,242-Ti) :   0.7729 B(188-O ,243-Ti) :   0.7729 
B(189-O ,227-Ti) :   0.8080 B(190-O ,228-Ti) :   0.8080 B(191-O ,229-Ti) :   0.8080 
B(192-O ,230-Ti) :   0.8080 B(199-Ti,211-O ) :   0.6268 B(199-Ti,212-O ) :   0.6268 
B(199-Ti,266-O ) :   0.7952 B(200-Ti,213-O ) :   0.6268 B(200-Ti,214-O ) :   0.6268 
B(200-Ti,266-O ) :   0.7952 B(211-O ,231-Ti) :   0.8731 B(212-O ,232-Ti) :   0.8731 
B(213-O ,232-Ti) :   0.8731 B(214-O ,231-Ti) :   0.8731 B(215-O ,241-Ti) :   0.8722 
B(216-O ,242-Ti) :   0.8722 B(217-O ,243-Ti) :   0.8722 B(218-O ,244-Ti) :   0.8722 
B(219-O ,246-Ti) :   0.8975 B(220-O ,247-Ti) :   0.8975 B(221-O ,248-Ti) :   0.8975 
B(222-O ,249-Ti) :   0.8975 B(223-O ,237-Ti) :   0.9209 B(224-O ,238-Ti) :   0.9209 
B(225-O ,239-Ti) :   0.9209 B(226-O ,240-Ti) :   0.9209 B(245-Ti,250-O ) :   0.7779 
B(245-Ti,251-O ) :   0.7779 B(245-Ti,252-O ) :   0.7779 B(245-Ti,253-O ) :   0.7779 


-------
TIMINGS
-------

Total SCF time: 0 days 4 hours 26 min 5 sec 

Total time                  ....   15965.768 sec
Sum of individual times     ....   15646.858 sec  ( 98.0%)

Fock matrix formation       ....   12974.691 sec  ( 81.3%)
  Split-RI-J                ....    3069.334 sec  ( 23.7% of F)
  XC integration            ....    1826.779 sec  ( 14.1% of F)
    Basis function eval.    ....     423.644 sec  ( 23.2% of XC)
    Density eval.           ....     948.583 sec  ( 51.9% of XC)
    XC-Functional eval.     ....      18.676 sec  (  1.0% of XC)
    XC-Potential eval.      ....     248.945 sec  ( 13.6% of XC)
Diagonalization             ....     969.712 sec  (  6.1%)
Density matrix formation    ....     246.175 sec  (  1.5%)
Population analysis         ....      16.390 sec  (  0.1%)
Initial guess               ....      89.339 sec  (  0.6%)
Orbital Transformation      ....     376.856 sec  (  2.4%)
Orbital Orthonormalization  ....      86.638 sec  (  0.5%)
DIIS solution               ....     912.100 sec  (  5.7%)
Grid generation             ....      60.896 sec  (  0.4%)

Maximum memory used throughout the entire SCF-calculation: 3143.0 MB

-------------------------   --------------------
FINAL SINGLE POINT ENERGY   -132567.225770306657
-------------------------   --------------------


                            ***************************************
                            *     ORCA property calculations      *
                            ***************************************

                                    ---------------------
                                    Active property flags
                                    ---------------------
   (+) Dipole Moment


------------------------------------------------------------------------------
                       ORCA ELECTRIC PROPERTIES CALCULATION
------------------------------------------------------------------------------

Dipole Moment Calculation                       ... on
Quadrupole Moment Calculation                   ... off
Polarizability Calculation                      ... off
GBWName                                         ... orca.gbw
Electron density                                ... orca.scfp
The origin for moment calculation is the CENTER OF MASS  = ( 0.000000,  0.000000  0.137386)

-------------
DIPOLE MOMENT
-------------
                                X             Y             Z
Electronic contribution:     -0.00001      -0.00000    -128.81450
Nuclear contribution   :      0.00000       0.00000    -157.13201
                        -----------------------------------------
Total Dipole Moment    :     -0.00001      -0.00000    -285.94652
                        -----------------------------------------
Magnitude (a.u.)       :    285.94652
Magnitude (Debye)      :    726.81829



--------------------
Rotational spectrum 
--------------------
 
Rotational constants in cm-1:     0.000079     0.000078     0.000076 
Rotational constants in MHz :     2.380554     2.327433     2.272893 

 Dipole components along the rotational axes: 
x,y,z [a.u.] :    -0.000013  -285.946519    -0.000001 
x,y,z [Debye]:    -0.000034  -726.818290    -0.000002 

 

Timings for individual modules:

Sum of individual times         ...    19347.039 sec (= 322.451 min)
GTO integral calculation        ...     3377.095 sec (=  56.285 min)  17.5 %
SCF iterations                  ...    15969.943 sec (= 266.166 min)  82.5 %
                             ****ORCA TERMINATED NORMALLY****
TOTAL RUN TIME: 0 days 5 hours 22 minutes 41 seconds 297 msec
