 **********************************************************************
                          MRCC program system
 **********************************************************************
 
                              Written by
 Mihaly Kallay, Peter R. Nagy, David Mester, Zoltan Rolik, Gyula Samu,
   Jozsef Csontos, Jozsef Csoka, P. Bernat Szabo, Laszlo Gyevi-Nagy,
    Bence Hegely, Istvan Ladjanszki, Lorant Szegedy, Bence Ladoczki,
       Klara Petrov, Mate Farkas, Pal D. Mezei, and Adam Ganyecz
 
        Department of Physical Chemistry and Materials Science
            Budapest University of Technology and Economics
                  Budapest P.O.Box 91, H-1521 Hungary
 
                              www.mrcc.hu
 
                    Release date: February 22, 2020

 ************************ 2021-11-08 23:02:51 *************************
 Executing minp...

 Reading input from MINP...
 
 Input file:
 
calc=LNO-CCSD(T)
scftype=rhf
verbosity=3
mem=470GB
symm=off
unit=angs
scfiguess=restart
scfmaxit=1000
lcorthr=loose
scfalg=locfit1

ccmaxit=400
usedisk=0
ccsdalg=dfdirect
ccsdthreads=4
ccsdmkl=thr
ptthreads=4

charge=-26
core=49

basis=special
bse_AVQZ
bse_VQZ
bse_VQZ
bse_VQZ
bse_VQZ
bse_VQZ
bse_VQZ
bse_AVQZ
bse_AVQZ
bse_AVQZ
bse_AVQZ
bse_AVQZ
bse_AVQZ
bse_AVQZ
bse_AVQZ
bse_AVQZ
bse_AVQZ
bse_AVQZ
bse_AVQZ
bse_AVQZ
bse_AVQZ
bse_AVQZ
bse_AVQZ
bse_AVQZ
bse_AVQZ
nothing
nothing
nothing
nothing
nothing
nothing
nothing
nothing
nothing
nothing
nothing
nothing
nothing
nothing
nothing
nothing
nothing
nothing
nothing
nothing
nothing
nothing
nothing
nothing
nothing
nothing
nothing
nothing
nothing
nothing
nothing
nothing
nothing
nothing
nothing
nothing
nothing
nothing
nothing
nothing
nothing
nothing
nothing
nothing
nothing
nothing
nothing
nothing
nothing
nothing
nothing
nothing
nothing
nothing
nothing
nothing
nothing
nothing
nothing
nothing
nothing
nothing
nothing
nothing
nothing
nothing
nothing
nothing
nothing
nothing
nothing
nothing
nothing
nothing
nothing
nothing
nothing
nothing
nothing
nothing
nothing
nothing
nothing
nothing
nothing
nothing
nothing
nothing
nothing
nothing
nothing
nothing
nothing
nothing
nothing
nothing
nothing
nothing
nothing
nothing
nothing
nothing
nothing
nothing
nothing
nothing
nothing
nothing
nothing
nothing
nothing
nothing
nothing
nothing
nothing
nothing
nothing
nothing
nothing
nothing
nothing
nothing
nothing
nothing
nothing
nothing
nothing
nothing
nothing
nothing
nothing
nothing
nothing
nothing
nothing
nothing
nothing
nothing
nothing
nothing
nothing
nothing
nothing
nothing
nothing
nothing
nothing
nothing
nothing
nothing
nothing
nothing
nothing
nothing
nothing
nothing
nothing
nothing
nothing
nothing
nothing
nothing
nothing
nothing
nothing
nothing
nothing
nothing
nothing
nothing
nothing
nothing
nothing
nothing
nothing
nothing
nothing
nothing
nothing
nothing
nothing
nothing
nothing
nothing
nothing
nothing
nothing
nothing
nothing
nothing
nothing
nothing
nothing
nothing
nothing
nothing
nothing
nothing
nothing
nothing
nothing
nothing
nothing
nothing
nothing
nothing
nothing
nothing
nothing
nothing
nothing
nothing
nothing
nothing
nothing
nothing
nothing
nothing
nothing
nothing
nothing
nothing
nothing
nothing
nothing
nothing
nothing
nothing
nothing
nothing
nothing
nothing
nothing
nothing
nothing
nothing
nothing
nothing
nothing
nothing
nothing
nothing
nothing
nothing
nothing
nothing
nothing
nothing
nothing
nothing
nothing
nothing
nothing
nothing
nothing
nothing
nothing
nothing
nothing
nothing

basis_sm=special
STO-3G
STO-3G
STO-3G
STO-3G
STO-3G
STO-3G
STO-3G
STO-3G
STO-3G
STO-3G
STO-3G
STO-3G
STO-3G
STO-3G
STO-3G
STO-3G
STO-3G
STO-3G
STO-3G
STO-3G
STO-3G
STO-3G
STO-3G
STO-3G
STO-3G
nothing
nothing
nothing
nothing
nothing
nothing
nothing
nothing
nothing
nothing
nothing
nothing
nothing
nothing
nothing
nothing
nothing
nothing
nothing
nothing
nothing
nothing
nothing
nothing
nothing
nothing
nothing
nothing
nothing
nothing
nothing
nothing
nothing
nothing
nothing
nothing
nothing
nothing
nothing
nothing
nothing
nothing
nothing
nothing
nothing
nothing
nothing
nothing
nothing
nothing
nothing
nothing
nothing
nothing
nothing
nothing
nothing
nothing
nothing
nothing
nothing
nothing
nothing
nothing
nothing
nothing
nothing
nothing
nothing
nothing
nothing
nothing
nothing
nothing
nothing
nothing
nothing
nothing
nothing
nothing
nothing
nothing
nothing
nothing
nothing
nothing
nothing
nothing
nothing
nothing
nothing
nothing
nothing
nothing
nothing
nothing
nothing
nothing
nothing
nothing
nothing
nothing
nothing
nothing
nothing
nothing
nothing
nothing
nothing
nothing
nothing
nothing
nothing
nothing
nothing
nothing
nothing
nothing
nothing
nothing
nothing
nothing
nothing
nothing
nothing
nothing
nothing
nothing
nothing
nothing
nothing
nothing
nothing
nothing
nothing
nothing
nothing
nothing
nothing
nothing
nothing
nothing
nothing
nothing
nothing
nothing
nothing
nothing
nothing
nothing
nothing
nothing
nothing
nothing
nothing
nothing
nothing
nothing
nothing
nothing
nothing
nothing
nothing
nothing
nothing
nothing
nothing
nothing
nothing
nothing
nothing
nothing
nothing
nothing
nothing
nothing
nothing
nothing
nothing
nothing
nothing
nothing
nothing
nothing
nothing
nothing
nothing
nothing
nothing
nothing
nothing
nothing
nothing
nothing
nothing
nothing
nothing
nothing
nothing
nothing
nothing
nothing
nothing
nothing
nothing
nothing
nothing
nothing
nothing
nothing
nothing
nothing
nothing
nothing
nothing
nothing
nothing
nothing
nothing
nothing
nothing
nothing
nothing
nothing
nothing
nothing
nothing
nothing
nothing
nothing
nothing
nothing
nothing
nothing
nothing
nothing
nothing
nothing
nothing
nothing
nothing
nothing
nothing
nothing
nothing
nothing
nothing
nothing
nothing
nothing
nothing
nothing
nothing
nothing
nothing
nothing
nothing
nothing
nothing
nothing

dfbasis_scf=special
bse_AVQZ_autoaux
bse_VQZ_autoaux
bse_VQZ_autoaux
bse_VQZ_autoaux
bse_VQZ_autoaux
bse_VQZ_autoaux
bse_VQZ_autoaux
bse_AVQZ_autoaux
bse_AVQZ_autoaux
bse_AVQZ_autoaux
bse_AVQZ_autoaux
bse_AVQZ_autoaux
bse_AVQZ_autoaux
bse_AVQZ_autoaux
bse_AVQZ_autoaux
bse_AVQZ_autoaux
bse_AVQZ_autoaux
bse_AVQZ_autoaux
bse_AVQZ_autoaux
bse_AVQZ_autoaux
bse_AVQZ_autoaux
bse_AVQZ_autoaux
bse_AVQZ_autoaux
bse_AVQZ_autoaux
bse_AVQZ_autoaux
nothing
nothing
nothing
nothing
nothing
nothing
nothing
nothing
nothing
nothing
nothing
nothing
nothing
nothing
nothing
nothing
nothing
nothing
nothing
nothing
nothing
nothing
nothing
nothing
nothing
nothing
nothing
nothing
nothing
nothing
nothing
nothing
nothing
nothing
nothing
nothing
nothing
nothing
nothing
nothing
nothing
nothing
nothing
nothing
nothing
nothing
nothing
nothing
nothing
nothing
nothing
nothing
nothing
nothing
nothing
nothing
nothing
nothing
nothing
nothing
nothing
nothing
nothing
nothing
nothing
nothing
nothing
nothing
nothing
nothing
nothing
nothing
nothing
nothing
nothing
nothing
nothing
nothing
nothing
nothing
nothing
nothing
nothing
nothing
nothing
nothing
nothing
nothing
nothing
nothing
nothing
nothing
nothing
nothing
nothing
nothing
nothing
nothing
nothing
nothing
nothing
nothing
nothing
nothing
nothing
nothing
nothing
nothing
nothing
nothing
nothing
nothing
nothing
nothing
nothing
nothing
nothing
nothing
nothing
nothing
nothing
nothing
nothing
nothing
nothing
nothing
nothing
nothing
nothing
nothing
nothing
nothing
nothing
nothing
nothing
nothing
nothing
nothing
nothing
nothing
nothing
nothing
nothing
nothing
nothing
nothing
nothing
nothing
nothing
nothing
nothing
nothing
nothing
nothing
nothing
nothing
nothing
nothing
nothing
nothing
nothing
nothing
nothing
nothing
nothing
nothing
nothing
nothing
nothing
nothing
nothing
nothing
nothing
nothing
nothing
nothing
nothing
nothing
nothing
nothing
nothing
nothing
nothing
nothing
nothing
nothing
nothing
nothing
nothing
nothing
nothing
nothing
nothing
nothing
nothing
nothing
nothing
nothing
nothing
nothing
nothing
nothing
nothing
nothing
nothing
nothing
nothing
nothing
nothing
nothing
nothing
nothing
nothing
nothing
nothing
nothing
nothing
nothing
nothing
nothing
nothing
nothing
nothing
nothing
nothing
nothing
nothing
nothing
nothing
nothing
nothing
nothing
nothing
nothing
nothing
nothing
nothing
nothing
nothing
nothing
nothing
nothing
nothing
nothing
nothing
nothing
nothing
nothing
nothing
nothing
nothing
nothing
nothing
nothing
nothing
nothing
nothing
nothing
nothing
nothing

dfbasis_cor=special
bse_AVQZ_autoaux
bse_VQZ_autoaux
bse_VQZ_autoaux
bse_VQZ_autoaux
bse_VQZ_autoaux
bse_VQZ_autoaux
bse_VQZ_autoaux
bse_AVQZ_autoaux
bse_AVQZ_autoaux
bse_AVQZ_autoaux
bse_AVQZ_autoaux
bse_AVQZ_autoaux
bse_AVQZ_autoaux
bse_AVQZ_autoaux
bse_AVQZ_autoaux
bse_AVQZ_autoaux
bse_AVQZ_autoaux
bse_AVQZ_autoaux
bse_AVQZ_autoaux
bse_AVQZ_autoaux
bse_AVQZ_autoaux
bse_AVQZ_autoaux
bse_AVQZ_autoaux
bse_AVQZ_autoaux
bse_AVQZ_autoaux
nothing
nothing
nothing
nothing
nothing
nothing
nothing
nothing
nothing
nothing
nothing
nothing
nothing
nothing
nothing
nothing
nothing
nothing
nothing
nothing
nothing
nothing
nothing
nothing
nothing
nothing
nothing
nothing
nothing
nothing
nothing
nothing
nothing
nothing
nothing
nothing
nothing
nothing
nothing
nothing
nothing
nothing
nothing
nothing
nothing
nothing
nothing
nothing
nothing
nothing
nothing
nothing
nothing
nothing
nothing
nothing
nothing
nothing
nothing
nothing
nothing
nothing
nothing
nothing
nothing
nothing
nothing
nothing
nothing
nothing
nothing
nothing
nothing
nothing
nothing
nothing
nothing
nothing
nothing
nothing
nothing
nothing
nothing
nothing
nothing
nothing
nothing
nothing
nothing
nothing
nothing
nothing
nothing
nothing
nothing
nothing
nothing
nothing
nothing
nothing
nothing
nothing
nothing
nothing
nothing
nothing
nothing
nothing
nothing
nothing
nothing
nothing
nothing
nothing
nothing
nothing
nothing
nothing
nothing
nothing
nothing
nothing
nothing
nothing
nothing
nothing
nothing
nothing
nothing
nothing
nothing
nothing
nothing
nothing
nothing
nothing
nothing
nothing
nothing
nothing
nothing
nothing
nothing
nothing
nothing
nothing
nothing
nothing
nothing
nothing
nothing
nothing
nothing
nothing
nothing
nothing
nothing
nothing
nothing
nothing
nothing
nothing
nothing
nothing
nothing
nothing
nothing
nothing
nothing
nothing
nothing
nothing
nothing
nothing
nothing
nothing
nothing
nothing
nothing
nothing
nothing
nothing
nothing
nothing
nothing
nothing
nothing
nothing
nothing
nothing
nothing
nothing
nothing
nothing
nothing
nothing
nothing
nothing
nothing
nothing
nothing
nothing
nothing
nothing
nothing
nothing
nothing
nothing
nothing
nothing
nothing
nothing
nothing
nothing
nothing
nothing
nothing
nothing
nothing
nothing
nothing
nothing
nothing
nothing
nothing
nothing
nothing
nothing
nothing
nothing
nothing
nothing
nothing
nothing
nothing
nothing
nothing
nothing
nothing
nothing
nothing
nothing
nothing
nothing
nothing
nothing
nothing
nothing
nothing
nothing
nothing
nothing
nothing
nothing
nothing
nothing
nothing
nothing
nothing
nothing

ecp=special
none
none
none
none
none
none
none
none
none
none
none
none
none
none
none
none
none
none
none
none
none
none
none
none
none
ECP-12
ECP-12
ECP-12
ECP-12
ECP-12
ECP-12
ECP-12
ECP-12
ECP-12
ECP-12
ECP-12
ECP-12
ECP-12
ECP-12
ECP-12
ECP-12
ECP-12
ECP-12
ECP-12
ECP-12
ECP-12
ECP-12
ECP-12
ECP-12
ECP-12
ECP-12
ECP-12
ECP-12
ECP-12
ECP-12
ECP-12
ECP-12
ECP-12
ECP-12
ECP-12
ECP-12
ECP-12
ECP-12
ECP-12
ECP-12
ECP-12
ECP-12
ECP-12
ECP-12
ECP-12
ECP-12
ECP-12
ECP-12
ECP-12
ECP-12
ECP-12
ECP-12
ECP-12
ECP-12
ECP-12
ECP-12
ECP-12
ECP-12
ECP-12
ECP-12
ECP-12
ECP-12
ECP-12
ECP-12
ECP-12
ECP-12
ECP-12
ECP-12
ECP-12
ECP-12
ECP-12
ECP-12
ECP-12
ECP-12
ECP-12
ECP-12
ECP-12
ECP-12
ECP-12
ECP-12
ECP-12
ECP-12
ECP-12
ECP-12
ECP-12
ECP-12
ECP-12
ECP-12
ECP-12
ECP-12
ECP-12
ECP-12
ECP-12
ECP-12
ECP-12
ECP-12
ECP-12
ECP-12
ECP-12
ECP-12
ECP-12
ECP-12
ECP-12
ECP-12
ECP-12
ECP-12
ECP-12
ECP-12
ECP-12
ECP-12
ECP-12
ECP-12
ECP-12
ECP-12
ECP-12
ECP-12
ECP-12
ECP-12
ECP-12
ECP-12
ECP-12
ECP-12
ECP-12
ECP-12
ECP-12
ECP-12
ECP-12
ECP-12
ECP-12
ECP-12
ECP-12
ECP-12
ECP-12
ECP-12
ECP-12
ECP-12
ECP-12
ECP-12
ECP-12
ECP-12
ECP-12
ECP-12
ECP-12
ECP-12
ECP-12
ECP-12
ECP-12
ECP-12
ECP-12
ECP-12
ECP-12
ECP-12
ECP-12
ECP-12
ECP-12
ECP-12
ECP-12
ECP-12
ECP-12
ECP-12
ECP-12
ECP-12
ECP-12
ECP-12
ECP-12
ECP-12
ECP-12
ECP-12
ECP-12
ECP-12
ECP-12
ECP-12
ECP-12
ECP-12
ECP-12
ECP-12
ECP-12
ECP-12
ECP-12
ECP-12
ECP-12
ECP-12
ECP-12
ECP-12
ECP-12
ECP-12
ECP-12
ECP-12
ECP-12
ECP-12
ECP-12
ECP-12
ECP-12
ECP-12
ECP-12
ECP-12
ECP-12
ECP-12
ECP-12
ECP-12
ECP-12
ECP-12
ECP-12
ECP-12
ECP-12
ECP-12
ECP-12
ECP-12
ECP-12
ECP-12
ECP-12
ECP-12
ECP-12
ECP-12
ECP-12
ECP-12
ECP-12
ECP-12
ECP-12
ECP-12
ECP-12
ECP-12
ECP-12
ECP-12
ECP-12
ECP-12
ECP-12
ECP-12
ECP-12
ECP-12
ECP-12
ECP-12
ECP-12
ECP-12
ECP-12
ECP-12
ECP-12
ECP-12
ECP-12
ECP-12
ECP-12
ECP-12
ECP-12
ECP-12
ECP-12
ECP-12
ECP-12
ECP-12
ECP-12
ECP-12
ECP-12
ECP-12
ECP-12
ECP-12
ECP-12
ECP-12
ECP-12
ECP-12
ECP-12
ECP-12

unit=angs
geom=xyz
285

O     0.00000000000    0.00000000000    0.00000000000
Mg    0.00000000000    0.00000000000    2.10322906414
Mg   -2.10322906414    0.00000000000    0.00000000000
Mg    0.00000000000    2.10322906414    0.00000000000
Mg    2.10322906414    0.00000000000    0.00000000000
Mg    0.00000000000   -2.10322906414    0.00000000000
Mg    0.00000000000    0.00000000000   -2.10322906414
O    -2.10322906414    0.00000000000    2.10322906414
O     0.00000000000    2.10322906414    2.10322906414
O     2.10322906414    0.00000000000    2.10322906414
O     0.00000000000   -2.10322906414    2.10322906414
O    -2.10322906414    2.10322906414    0.00000000000
O     2.10322906414    2.10322906414    0.00000000000
O     2.10322906414   -2.10322906414    0.00000000000
O    -2.10322906414   -2.10322906414    0.00000000000
O    -2.10322906414    0.00000000000   -2.10322906414
O     0.00000000000    2.10322906414   -2.10322906414
O     2.10322906414    0.00000000000   -2.10322906414
O     0.00000000000   -2.10322906414   -2.10322906414
O     0.00000000000    0.00000000000    4.20645812828
O    -4.20645812828    0.00000000000    0.00000000000
O     0.00000000000    4.20645812828    0.00000000000
O     4.20645812828    0.00000000000    0.00000000000
O     0.00000000000   -4.20645812828    0.00000000000
O     0.00000000000    0.00000000000   -4.20645812828
Mg   -2.10322906414    2.10322906414    2.10322906414
Mg    2.10322906414    2.10322906414    2.10322906414
Mg    2.10322906414   -2.10322906414    2.10322906414
Mg   -2.10322906414   -2.10322906414    2.10322906414
Mg   -2.10322906414    2.10322906414   -2.10322906414
Mg    2.10322906414    2.10322906414   -2.10322906414
Mg    2.10322906414   -2.10322906414   -2.10322906414
Mg   -2.10322906414   -2.10322906414   -2.10322906414
Mg   -2.10322906414    0.00000000000    4.20645812828
Mg    0.00000000000    2.10322906414    4.20645812828
Mg    2.10322906414    0.00000000000    4.20645812828
Mg    0.00000000000   -2.10322906414    4.20645812828
Mg   -4.20645812828    0.00000000000    2.10322906414
Mg    0.00000000000    4.20645812828    2.10322906414
Mg    4.20645812828    0.00000000000    2.10322906414
Mg    0.00000000000   -4.20645812828    2.10322906414
Mg   -4.20645812828    2.10322906414    0.00000000000
Mg   -2.10322906414    4.20645812828    0.00000000000
Mg    2.10322906414    4.20645812828    0.00000000000
Mg    4.20645812828    2.10322906414    0.00000000000
Mg    4.20645812828   -2.10322906414    0.00000000000
Mg    2.10322906414   -4.20645812828    0.00000000000
Mg   -2.10322906414   -4.20645812828    0.00000000000
Mg   -4.20645812828   -2.10322906414    0.00000000000
Mg   -4.20645812828    0.00000000000   -2.10322906414
Mg    0.00000000000    4.20645812828   -2.10322906414
Mg    4.20645812828    0.00000000000   -2.10322906414
Mg    0.00000000000   -4.20645812828   -2.10322906414
Mg   -2.10322906414    0.00000000000   -4.20645812828
Mg    0.00000000000    2.10322906414   -4.20645812828
Mg    2.10322906414    0.00000000000   -4.20645812828
Mg    0.00000000000   -2.10322906414   -4.20645812828
Mg    0.00000000000    0.00000000000    6.30968719243
Mg   -4.20645812828    2.10322906414    4.20645812828
Mg   -2.10322906414    4.20645812828    4.20645812828
Mg    2.10322906414    4.20645812828    4.20645812828
Mg    4.20645812828    2.10322906414    4.20645812828
Mg    4.20645812828   -2.10322906414    4.20645812828
Mg    2.10322906414   -4.20645812828    4.20645812828
Mg   -2.10322906414   -4.20645812828    4.20645812828
Mg   -4.20645812828   -2.10322906414    4.20645812828
Mg   -4.20645812828    4.20645812828    2.10322906414
Mg    4.20645812828    4.20645812828    2.10322906414
Mg    4.20645812828   -4.20645812828    2.10322906414
Mg   -4.20645812828   -4.20645812828    2.10322906414
Mg   -6.30968719243    0.00000000000    0.00000000000
Mg    0.00000000000    6.30968719243    0.00000000000
Mg    6.30968719243    0.00000000000    0.00000000000
Mg    0.00000000000   -6.30968719243    0.00000000000
Mg   -4.20645812828    4.20645812828   -2.10322906414
Mg    4.20645812828    4.20645812828   -2.10322906414
Mg    4.20645812828   -4.20645812828   -2.10322906414
Mg   -4.20645812828   -4.20645812828   -2.10322906414
Mg   -4.20645812828    2.10322906414   -4.20645812828
Mg   -2.10322906414    4.20645812828   -4.20645812828
Mg    2.10322906414    4.20645812828   -4.20645812828
Mg    4.20645812828    2.10322906414   -4.20645812828
Mg    4.20645812828   -2.10322906414   -4.20645812828
Mg    2.10322906414   -4.20645812828   -4.20645812828
Mg   -2.10322906414   -4.20645812828   -4.20645812828
Mg   -4.20645812828   -2.10322906414   -4.20645812828
Mg    0.00000000000    0.00000000000   -6.30968719243
Mg   -2.10322906414    2.10322906414    6.30968719243
Mg    2.10322906414    2.10322906414    6.30968719243
Mg    2.10322906414   -2.10322906414    6.30968719243
Mg   -2.10322906414   -2.10322906414    6.30968719243
Mg   -6.30968719243    2.10322906414    2.10322906414
Mg   -2.10322906414    6.30968719243    2.10322906414
Mg    2.10322906414    6.30968719243    2.10322906414
Mg    6.30968719243    2.10322906414    2.10322906414
Mg    6.30968719243   -2.10322906414    2.10322906414
Mg    2.10322906414   -6.30968719243    2.10322906414
Mg   -2.10322906414   -6.30968719243    2.10322906414
Mg   -6.30968719243   -2.10322906414    2.10322906414
Mg   -6.30968719243    2.10322906414   -2.10322906414
Mg   -2.10322906414    6.30968719243   -2.10322906414
Mg    2.10322906414    6.30968719243   -2.10322906414
Mg    6.30968719243    2.10322906414   -2.10322906414
Mg    6.30968719243   -2.10322906414   -2.10322906414
Mg    2.10322906414   -6.30968719243   -2.10322906414
Mg   -2.10322906414   -6.30968719243   -2.10322906414
Mg   -6.30968719243   -2.10322906414   -2.10322906414
Mg   -2.10322906414    2.10322906414   -6.30968719243
Mg    2.10322906414    2.10322906414   -6.30968719243
Mg    2.10322906414   -2.10322906414   -6.30968719243
Mg   -2.10322906414   -2.10322906414   -6.30968719243
Mg   -4.20645812828    0.00000000000    6.30968719243
Mg    0.00000000000    4.20645812828    6.30968719243
Mg    4.20645812828    0.00000000000    6.30968719243
Mg    0.00000000000   -4.20645812828    6.30968719243
Mg   -6.30968719243    0.00000000000    4.20645812828
Mg    0.00000000000    6.30968719243    4.20645812828
Mg    6.30968719243    0.00000000000    4.20645812828
Mg    0.00000000000   -6.30968719243    4.20645812828
Mg   -6.30968719243    4.20645812828    0.00000000000
Mg   -4.20645812828    6.30968719243    0.00000000000
Mg    4.20645812828    6.30968719243    0.00000000000
Mg    6.30968719243    4.20645812828    0.00000000000
Mg    6.30968719243   -4.20645812828    0.00000000000
Mg    4.20645812828   -6.30968719243    0.00000000000
Mg   -4.20645812828   -6.30968719243    0.00000000000
Mg   -6.30968719243   -4.20645812828    0.00000000000
Mg   -6.30968719243    0.00000000000   -4.20645812828
Mg    0.00000000000    6.30968719243   -4.20645812828
Mg    6.30968719243    0.00000000000   -4.20645812828
Mg    0.00000000000   -6.30968719243   -4.20645812828
Mg   -4.20645812828    0.00000000000   -6.30968719243
Mg    0.00000000000    4.20645812828   -6.30968719243
Mg    4.20645812828    0.00000000000   -6.30968719243
Mg    0.00000000000   -4.20645812828   -6.30968719243
Mg   -2.10322906414    0.00000000000    8.41291625657
Mg    0.00000000000    2.10322906414    8.41291625657
Mg    2.10322906414    0.00000000000    8.41291625657
Mg    0.00000000000   -2.10322906414    8.41291625657
Mg   -4.20645812828    4.20645812828    6.30968719243
Mg    4.20645812828    4.20645812828    6.30968719243
Mg    4.20645812828   -4.20645812828    6.30968719243
Mg   -4.20645812828   -4.20645812828    6.30968719243
Mg   -6.30968719243    4.20645812828    4.20645812828
Mg   -4.20645812828    6.30968719243    4.20645812828
Mg    4.20645812828    6.30968719243    4.20645812828
Mg    6.30968719243    4.20645812828    4.20645812828
Mg    6.30968719243   -4.20645812828    4.20645812828
Mg    4.20645812828   -6.30968719243    4.20645812828
Mg   -4.20645812828   -6.30968719243    4.20645812828
Mg   -6.30968719243   -4.20645812828    4.20645812828
Mg   -8.41291625657    0.00000000000    2.10322906414
Mg    0.00000000000    8.41291625657    2.10322906414
Mg    8.41291625657    0.00000000000    2.10322906414
Mg    0.00000000000   -8.41291625657    2.10322906414
Mg   -8.41291625657    2.10322906414    0.00000000000
Mg   -2.10322906414    8.41291625657    0.00000000000
Mg    2.10322906414    8.41291625657    0.00000000000
Mg    8.41291625657    2.10322906414    0.00000000000
Mg    8.41291625657   -2.10322906414    0.00000000000
Mg    2.10322906414   -8.41291625657    0.00000000000
Mg   -2.10322906414   -8.41291625657    0.00000000000
Mg   -8.41291625657   -2.10322906414    0.00000000000
Mg   -8.41291625657    0.00000000000   -2.10322906414
Mg    0.00000000000    8.41291625657   -2.10322906414
Mg    8.41291625657    0.00000000000   -2.10322906414
Mg    0.00000000000   -8.41291625657   -2.10322906414
Mg   -6.30968719243    4.20645812828   -4.20645812828
Mg   -4.20645812828    6.30968719243   -4.20645812828
Mg    4.20645812828    6.30968719243   -4.20645812828
Mg    6.30968719243    4.20645812828   -4.20645812828
Mg    6.30968719243   -4.20645812828   -4.20645812828
Mg    4.20645812828   -6.30968719243   -4.20645812828
Mg   -4.20645812828   -6.30968719243   -4.20645812828
Mg   -6.30968719243   -4.20645812828   -4.20645812828
Mg   -4.20645812828    4.20645812828   -6.30968719243
Mg    4.20645812828    4.20645812828   -6.30968719243
Mg    4.20645812828   -4.20645812828   -6.30968719243
Mg   -4.20645812828   -4.20645812828   -6.30968719243
Mg   -2.10322906414    0.00000000000   -8.41291625657
Mg    0.00000000000    2.10322906414   -8.41291625657
Mg    2.10322906414    0.00000000000   -8.41291625657
Mg    0.00000000000   -2.10322906414   -8.41291625657
Mg   -6.30968719243    2.10322906414    6.30968719243
Mg   -2.10322906414    6.30968719243    6.30968719243
Mg    2.10322906414    6.30968719243    6.30968719243
Mg    6.30968719243    2.10322906414    6.30968719243
Mg    6.30968719243   -2.10322906414    6.30968719243
Mg    2.10322906414   -6.30968719243    6.30968719243
Mg   -2.10322906414   -6.30968719243    6.30968719243
Mg   -6.30968719243   -2.10322906414    6.30968719243
Mg   -6.30968719243    6.30968719243    2.10322906414
Mg    6.30968719243    6.30968719243    2.10322906414
Mg    6.30968719243   -6.30968719243    2.10322906414
Mg   -6.30968719243   -6.30968719243    2.10322906414
Mg   -6.30968719243    6.30968719243   -2.10322906414
Mg    6.30968719243    6.30968719243   -2.10322906414
Mg    6.30968719243   -6.30968719243   -2.10322906414
Mg   -6.30968719243   -6.30968719243   -2.10322906414
Mg   -6.30968719243    2.10322906414   -6.30968719243
Mg   -2.10322906414    6.30968719243   -6.30968719243
Mg    2.10322906414    6.30968719243   -6.30968719243
Mg    6.30968719243    2.10322906414   -6.30968719243
Mg    6.30968719243   -2.10322906414   -6.30968719243
Mg    2.10322906414   -6.30968719243   -6.30968719243
Mg   -2.10322906414   -6.30968719243   -6.30968719243
Mg   -6.30968719243   -2.10322906414   -6.30968719243
Mg   -4.20645812828    2.10322906414    8.41291625657
Mg   -2.10322906414    4.20645812828    8.41291625657
Mg    2.10322906414    4.20645812828    8.41291625657
Mg    4.20645812828    2.10322906414    8.41291625657
Mg    4.20645812828   -2.10322906414    8.41291625657
Mg    2.10322906414   -4.20645812828    8.41291625657
Mg   -2.10322906414   -4.20645812828    8.41291625657
Mg   -4.20645812828   -2.10322906414    8.41291625657
Mg   -8.41291625657    2.10322906414    4.20645812828
Mg   -2.10322906414    8.41291625657    4.20645812828
Mg    2.10322906414    8.41291625657    4.20645812828
Mg    8.41291625657    2.10322906414    4.20645812828
Mg    8.41291625657   -2.10322906414    4.20645812828
Mg    2.10322906414   -8.41291625657    4.20645812828
Mg   -2.10322906414   -8.41291625657    4.20645812828
Mg   -8.41291625657   -2.10322906414    4.20645812828
Mg   -8.41291625657    4.20645812828    2.10322906414
Mg   -4.20645812828    8.41291625657    2.10322906414
Mg    4.20645812828    8.41291625657    2.10322906414
Mg    8.41291625657    4.20645812828    2.10322906414
Mg    8.41291625657   -4.20645812828    2.10322906414
Mg    4.20645812828   -8.41291625657    2.10322906414
Mg   -4.20645812828   -8.41291625657    2.10322906414
Mg   -8.41291625657   -4.20645812828    2.10322906414
Mg   -8.41291625657    4.20645812828   -2.10322906414
Mg   -4.20645812828    8.41291625657   -2.10322906414
Mg    4.20645812828    8.41291625657   -2.10322906414
Mg    8.41291625657    4.20645812828   -2.10322906414
Mg    8.41291625657   -4.20645812828   -2.10322906414
Mg    4.20645812828   -8.41291625657   -2.10322906414
Mg   -4.20645812828   -8.41291625657   -2.10322906414
Mg   -8.41291625657   -4.20645812828   -2.10322906414
Mg   -8.41291625657    2.10322906414   -4.20645812828
Mg   -2.10322906414    8.41291625657   -4.20645812828
Mg    2.10322906414    8.41291625657   -4.20645812828
Mg    8.41291625657    2.10322906414   -4.20645812828
Mg    8.41291625657   -2.10322906414   -4.20645812828
Mg    2.10322906414   -8.41291625657   -4.20645812828
Mg   -2.10322906414   -8.41291625657   -4.20645812828
Mg   -8.41291625657   -2.10322906414   -4.20645812828
Mg   -4.20645812828    2.10322906414   -8.41291625657
Mg   -2.10322906414    4.20645812828   -8.41291625657
Mg    2.10322906414    4.20645812828   -8.41291625657
Mg    4.20645812828    2.10322906414   -8.41291625657
Mg    4.20645812828   -2.10322906414   -8.41291625657
Mg    2.10322906414   -4.20645812828   -8.41291625657
Mg   -2.10322906414   -4.20645812828   -8.41291625657
Mg   -4.20645812828   -2.10322906414   -8.41291625657
Mg    0.00000000000    0.00000000000   10.51614532071
Mg  -10.51614532071    0.00000000000    0.00000000000
Mg    0.00000000000   10.51614532071    0.00000000000
Mg   10.51614532071    0.00000000000    0.00000000000
Mg    0.00000000000  -10.51614532071    0.00000000000
Mg    0.00000000000    0.00000000000  -10.51614532071
Mg   -2.10322906414    2.10322906414   10.51614532071
Mg    2.10322906414    2.10322906414   10.51614532071
Mg    2.10322906414   -2.10322906414   10.51614532071
Mg   -2.10322906414   -2.10322906414   10.51614532071
Mg  -10.51614532071    2.10322906414    2.10322906414
Mg   -2.10322906414   10.51614532071    2.10322906414
Mg    2.10322906414   10.51614532071    2.10322906414
Mg   10.51614532071    2.10322906414    2.10322906414
Mg   10.51614532071   -2.10322906414    2.10322906414
Mg    2.10322906414  -10.51614532071    2.10322906414
Mg   -2.10322906414  -10.51614532071    2.10322906414
Mg  -10.51614532071   -2.10322906414    2.10322906414
Mg  -10.51614532071    2.10322906414   -2.10322906414
Mg   -2.10322906414   10.51614532071   -2.10322906414
Mg    2.10322906414   10.51614532071   -2.10322906414
Mg   10.51614532071    2.10322906414   -2.10322906414
Mg   10.51614532071   -2.10322906414   -2.10322906414
Mg    2.10322906414  -10.51614532071   -2.10322906414
Mg   -2.10322906414  -10.51614532071   -2.10322906414
Mg  -10.51614532071   -2.10322906414   -2.10322906414
Mg   -2.10322906414    2.10322906414  -10.51614532071
Mg    2.10322906414    2.10322906414  -10.51614532071
Mg    2.10322906414   -2.10322906414  -10.51614532071
Mg   -2.10322906414   -2.10322906414  -10.51614532071

qmmm=Amber
pointcharges
12124
     -2.10322906414    2.10322906414    2.10322906414    2.00000000000
      2.10322906414    2.10322906414    2.10322906414    2.00000000000
      2.10322906414   -2.10322906414    2.10322906414    2.00000000000
     -2.10322906414   -2.10322906414    2.10322906414    2.00000000000
     -2.10322906414    2.10322906414   -2.10322906414    2.00000000000
      2.10322906414    2.10322906414   -2.10322906414    2.00000000000
      2.10322906414   -2.10322906414   -2.10322906414    2.00000000000
     -2.10322906414   -2.10322906414   -2.10322906414    2.00000000000
     -2.10322906414    0.00000000000    4.20645812828    2.00000000000
      0.00000000000    2.10322906414    4.20645812828    2.00000000000
      2.10322906414    0.00000000000    4.20645812828    2.00000000000
      0.00000000000   -2.10322906414    4.20645812828    2.00000000000
     -4.20645812828    0.00000000000    2.10322906414    2.00000000000
      0.00000000000    4.20645812828    2.10322906414    2.00000000000
      4.20645812828    0.00000000000    2.10322906414    2.00000000000
      0.00000000000   -4.20645812828    2.10322906414    2.00000000000
     -4.20645812828    2.10322906414    0.00000000000    2.00000000000
     -2.10322906414    4.20645812828    0.00000000000    2.00000000000
      2.10322906414    4.20645812828    0.00000000000    2.00000000000
      4.20645812828    2.10322906414    0.00000000000    2.00000000000
      4.20645812828   -2.10322906414    0.00000000000    2.00000000000
      2.10322906414   -4.20645812828    0.00000000000    2.00000000000
     -2.10322906414   -4.20645812828    0.00000000000    2.00000000000
     -4.20645812828   -2.10322906414    0.00000000000    2.00000000000
     -4.20645812828    0.00000000000   -2.10322906414    2.00000000000
      0.00000000000    4.20645812828   -2.10322906414    2.00000000000
      4.20645812828    0.00000000000   -2.10322906414    2.00000000000
      0.00000000000   -4.20645812828   -2.10322906414    2.00000000000
     -2.10322906414    0.00000000000   -4.20645812828    2.00000000000
      0.00000000000    2.10322906414   -4.20645812828    2.00000000000
      2.10322906414    0.00000000000   -4.20645812828    2.00000000000
      0.00000000000   -2.10322906414   -4.20645812828    2.00000000000
     -2.10322906414    2.10322906414    4.20645812828   -2.00000000000
      2.10322906414    2.10322906414    4.20645812828   -2.00000000000
      2.10322906414   -2.10322906414    4.20645812828   -2.00000000000
     -2.10322906414   -2.10322906414    4.20645812828   -2.00000000000
     -4.20645812828    2.10322906414    2.10322906414   -2.00000000000
     -2.10322906414    4.20645812828    2.10322906414   -2.00000000000
      2.10322906414    4.20645812828    2.10322906414   -2.00000000000
      4.20645812828    2.10322906414    2.10322906414   -2.00000000000
      4.20645812828   -2.10322906414    2.10322906414   -2.00000000000
      2.10322906414   -4.20645812828    2.10322906414   -2.00000000000
     -2.10322906414   -4.20645812828    2.10322906414   -2.00000000000
     -4.20645812828   -2.10322906414    2.10322906414   -2.00000000000
     -4.20645812828    2.10322906414   -2.10322906414   -2.00000000000
     -2.10322906414    4.20645812828   -2.10322906414   -2.00000000000
      2.10322906414    4.20645812828   -2.10322906414   -2.00000000000
      4.20645812828    2.10322906414   -2.10322906414   -2.00000000000
      4.20645812828   -2.10322906414   -2.10322906414   -2.00000000000
      2.10322906414   -4.20645812828   -2.10322906414   -2.00000000000
     -2.10322906414   -4.20645812828   -2.10322906414   -2.00000000000
     -4.20645812828   -2.10322906414   -2.10322906414   -2.00000000000
     -2.10322906414    2.10322906414   -4.20645812828   -2.00000000000
      2.10322906414    2.10322906414   -4.20645812828   -2.00000000000
      2.10322906414   -2.10322906414   -4.20645812828   -2.00000000000
     -2.10322906414   -2.10322906414   -4.20645812828   -2.00000000000
     -4.20645812828    0.00000000000    4.20645812828   -2.00000000000
      0.00000000000    4.20645812828    4.20645812828   -2.00000000000
      4.20645812828    0.00000000000    4.20645812828   -2.00000000000
      0.00000000000   -4.20645812828    4.20645812828   -2.00000000000
     -4.20645812828    4.20645812828    0.00000000000   -2.00000000000
      4.20645812828    4.20645812828    0.00000000000   -2.00000000000
      4.20645812828   -4.20645812828    0.00000000000   -2.00000000000
     -4.20645812828   -4.20645812828    0.00000000000   -2.00000000000
     -4.20645812828    0.00000000000   -4.20645812828   -2.00000000000
      0.00000000000    4.20645812828   -4.20645812828   -2.00000000000
      4.20645812828    0.00000000000   -4.20645812828   -2.00000000000
      0.00000000000   -4.20645812828   -4.20645812828   -2.00000000000
      0.00000000000    0.00000000000    6.30968719243    2.00000000000
     -4.20645812828    2.10322906414    4.20645812828    2.00000000000
     -2.10322906414    4.20645812828    4.20645812828    2.00000000000
      2.10322906414    4.20645812828    4.20645812828    2.00000000000
      4.20645812828    2.10322906414    4.20645812828    2.00000000000
      4.20645812828   -2.10322906414    4.20645812828    2.00000000000
      2.10322906414   -4.20645812828    4.20645812828    2.00000000000
     -2.10322906414   -4.20645812828    4.20645812828    2.00000000000
     -4.20645812828   -2.10322906414    4.20645812828    2.00000000000
     -4.20645812828    4.20645812828    2.10322906414    2.00000000000
      4.20645812828    4.20645812828    2.10322906414    2.00000000000
      4.20645812828   -4.20645812828    2.10322906414    2.00000000000
     -4.20645812828   -4.20645812828    2.10322906414    2.00000000000
     -6.30968719243    0.00000000000    0.00000000000    2.00000000000
      0.00000000000    6.30968719243    0.00000000000    2.00000000000
      6.30968719243    0.00000000000    0.00000000000    2.00000000000
      0.00000000000   -6.30968719243    0.00000000000    2.00000000000
     -4.20645812828    4.20645812828   -2.10322906414    2.00000000000
      4.20645812828    4.20645812828   -2.10322906414    2.00000000000
      4.20645812828   -4.20645812828   -2.10322906414    2.00000000000
     -4.20645812828   -4.20645812828   -2.10322906414    2.00000000000
     -4.20645812828    2.10322906414   -4.20645812828    2.00000000000
     -2.10322906414    4.20645812828   -4.20645812828    2.00000000000
      2.10322906414    4.20645812828   -4.20645812828    2.00000000000
      4.20645812828    2.10322906414   -4.20645812828    2.00000000000
      4.20645812828   -2.10322906414   -4.20645812828    2.00000000000
      2.10322906414   -4.20645812828   -4.20645812828    2.00000000000
     -2.10322906414   -4.20645812828   -4.20645812828    2.00000000000
     -4.20645812828   -2.10322906414   -4.20645812828    2.00000000000
      0.00000000000    0.00000000000   -6.30968719243    2.00000000000
     -2.10322906414    0.00000000000    6.30968719243   -2.00000000000
      0.00000000000    2.10322906414    6.30968719243   -2.00000000000
      2.10322906414    0.00000000000    6.30968719243   -2.00000000000
      0.00000000000   -2.10322906414    6.30968719243   -2.00000000000
     -6.30968719243    0.00000000000    2.10322906414   -2.00000000000
      0.00000000000    6.30968719243    2.10322906414   -2.00000000000
      6.30968719243    0.00000000000    2.10322906414   -2.00000000000
      0.00000000000   -6.30968719243    2.10322906414   -2.00000000000
     -6.30968719243    2.10322906414    0.00000000000   -2.00000000000
     -2.10322906414    6.30968719243    0.00000000000   -2.00000000000
      2.10322906414    6.30968719243    0.00000000000   -2.00000000000
      6.30968719243    2.10322906414    0.00000000000   -2.00000000000
      6.30968719243   -2.10322906414    0.00000000000   -2.00000000000
      2.10322906414   -6.30968719243    0.00000000000   -2.00000000000
     -2.10322906414   -6.30968719243    0.00000000000   -2.00000000000
     -6.30968719243   -2.10322906414    0.00000000000   -2.00000000000
     -6.30968719243    0.00000000000   -2.10322906414   -2.00000000000
      0.00000000000    6.30968719243   -2.10322906414   -2.00000000000
      6.30968719243    0.00000000000   -2.10322906414   -2.00000000000
      0.00000000000   -6.30968719243   -2.10322906414   -2.00000000000
     -2.10322906414    0.00000000000   -6.30968719243   -2.00000000000
      0.00000000000    2.10322906414   -6.30968719243   -2.00000000000
      2.10322906414    0.00000000000   -6.30968719243   -2.00000000000
      0.00000000000   -2.10322906414   -6.30968719243   -2.00000000000
     -2.10322906414    2.10322906414    6.30968719243    2.00000000000
      2.10322906414    2.10322906414    6.30968719243    2.00000000000
      2.10322906414   -2.10322906414    6.30968719243    2.00000000000
     -2.10322906414   -2.10322906414    6.30968719243    2.00000000000
     -6.30968719243    2.10322906414    2.10322906414    2.00000000000
     -2.10322906414    6.30968719243    2.10322906414    2.00000000000
      2.10322906414    6.30968719243    2.10322906414    2.00000000000
      6.30968719243    2.10322906414    2.10322906414    2.00000000000
      6.30968719243   -2.10322906414    2.10322906414    2.00000000000
      2.10322906414   -6.30968719243    2.10322906414    2.00000000000
     -2.10322906414   -6.30968719243    2.10322906414    2.00000000000
     -6.30968719243   -2.10322906414    2.10322906414    2.00000000000
     -6.30968719243    2.10322906414   -2.10322906414    2.00000000000
     -2.10322906414    6.30968719243   -2.10322906414    2.00000000000
      2.10322906414    6.30968719243   -2.10322906414    2.00000000000
      6.30968719243    2.10322906414   -2.10322906414    2.00000000000
      6.30968719243   -2.10322906414   -2.10322906414    2.00000000000
      2.10322906414   -6.30968719243   -2.10322906414    2.00000000000
     -2.10322906414   -6.30968719243   -2.10322906414    2.00000000000
     -6.30968719243   -2.10322906414   -2.10322906414    2.00000000000
     -2.10322906414    2.10322906414   -6.30968719243    2.00000000000
      2.10322906414    2.10322906414   -6.30968719243    2.00000000000
      2.10322906414   -2.10322906414   -6.30968719243    2.00000000000
     -2.10322906414   -2.10322906414   -6.30968719243    2.00000000000
     -4.20645812828    4.20645812828    4.20645812828   -2.00000000000
      4.20645812828    4.20645812828    4.20645812828   -2.00000000000
      4.20645812828   -4.20645812828    4.20645812828   -2.00000000000
     -4.20645812828   -4.20645812828    4.20645812828   -2.00000000000
     -4.20645812828    4.20645812828   -4.20645812828   -2.00000000000
      4.20645812828    4.20645812828   -4.20645812828   -2.00000000000
      4.20645812828   -4.20645812828   -4.20645812828   -2.00000000000
     -4.20645812828   -4.20645812828   -4.20645812828   -2.00000000000
     -4.20645812828    0.00000000000    6.30968719243    2.00000000000
      0.00000000000    4.20645812828    6.30968719243    2.00000000000
      4.20645812828    0.00000000000    6.30968719243    2.00000000000
      0.00000000000   -4.20645812828    6.30968719243    2.00000000000
     -6.30968719243    0.00000000000    4.20645812828    2.00000000000
      0.00000000000    6.30968719243    4.20645812828    2.00000000000
      6.30968719243    0.00000000000    4.20645812828    2.00000000000
      0.00000000000   -6.30968719243    4.20645812828    2.00000000000
     -6.30968719243    4.20645812828    0.00000000000    2.00000000000
     -4.20645812828    6.30968719243    0.00000000000    2.00000000000
      4.20645812828    6.30968719243    0.00000000000    2.00000000000
      6.30968719243    4.20645812828    0.00000000000    2.00000000000
      6.30968719243   -4.20645812828    0.00000000000    2.00000000000
      4.20645812828   -6.30968719243    0.00000000000    2.00000000000
     -4.20645812828   -6.30968719243    0.00000000000    2.00000000000
     -6.30968719243   -4.20645812828    0.00000000000    2.00000000000
     -6.30968719243    0.00000000000   -4.20645812828    2.00000000000
      0.00000000000    6.30968719243   -4.20645812828    2.00000000000
      6.30968719243    0.00000000000   -4.20645812828    2.00000000000
      0.00000000000   -6.30968719243   -4.20645812828    2.00000000000
     -4.20645812828    0.00000000000   -6.30968719243    2.00000000000
      0.00000000000    4.20645812828   -6.30968719243    2.00000000000
      4.20645812828    0.00000000000   -6.30968719243    2.00000000000
      0.00000000000   -4.20645812828   -6.30968719243    2.00000000000
     -4.20645812828    2.10322906414    6.30968719243   -2.00000000000
     -2.10322906414    4.20645812828    6.30968719243   -2.00000000000
      2.10322906414    4.20645812828    6.30968719243   -2.00000000000
      4.20645812828    2.10322906414    6.30968719243   -2.00000000000
      4.20645812828   -2.10322906414    6.30968719243   -2.00000000000
      2.10322906414   -4.20645812828    6.30968719243   -2.00000000000
     -2.10322906414   -4.20645812828    6.30968719243   -2.00000000000
     -4.20645812828   -2.10322906414    6.30968719243   -2.00000000000
     -6.30968719243    2.10322906414    4.20645812828   -2.00000000000
     -2.10322906414    6.30968719243    4.20645812828   -2.00000000000
      2.10322906414    6.30968719243    4.20645812828   -2.00000000000
      6.30968719243    2.10322906414    4.20645812828   -2.00000000000
      6.30968719243   -2.10322906414    4.20645812828   -2.00000000000
      2.10322906414   -6.30968719243    4.20645812828   -2.00000000000
     -2.10322906414   -6.30968719243    4.20645812828   -2.00000000000
     -6.30968719243   -2.10322906414    4.20645812828   -2.00000000000
     -6.30968719243    4.20645812828    2.10322906414   -2.00000000000
     -4.20645812828    6.30968719243    2.10322906414   -2.00000000000
      4.20645812828    6.30968719243    2.10322906414   -2.00000000000
      6.30968719243    4.20645812828    2.10322906414   -2.00000000000
      6.30968719243   -4.20645812828    2.10322906414   -2.00000000000
      4.20645812828   -6.30968719243    2.10322906414   -2.00000000000
     -4.20645812828   -6.30968719243    2.10322906414   -2.00000000000
     -6.30968719243   -4.20645812828    2.10322906414   -2.00000000000
     -6.30968719243    4.20645812828   -2.10322906414   -2.00000000000
     -4.20645812828    6.30968719243   -2.10322906414   -2.00000000000
      4.20645812828    6.30968719243   -2.10322906414   -2.00000000000
      6.30968719243    4.20645812828   -2.10322906414   -2.00000000000
      6.30968719243   -4.20645812828   -2.10322906414   -2.00000000000
      4.20645812828   -6.30968719243   -2.10322906414   -2.00000000000
     -4.20645812828   -6.30968719243   -2.10322906414   -2.00000000000
     -6.30968719243   -4.20645812828   -2.10322906414   -2.00000000000
     -6.30968719243    2.10322906414   -4.20645812828   -2.00000000000
     -2.10322906414    6.30968719243   -4.20645812828   -2.00000000000
      2.10322906414    6.30968719243   -4.20645812828   -2.00000000000
      6.30968719243    2.10322906414   -4.20645812828   -2.00000000000
      6.30968719243   -2.10322906414   -4.20645812828   -2.00000000000
      2.10322906414   -6.30968719243   -4.20645812828   -2.00000000000
     -2.10322906414   -6.30968719243   -4.20645812828   -2.00000000000
     -6.30968719243   -2.10322906414   -4.20645812828   -2.00000000000
     -4.20645812828    2.10322906414   -6.30968719243   -2.00000000000
     -2.10322906414    4.20645812828   -6.30968719243   -2.00000000000
      2.10322906414    4.20645812828   -6.30968719243   -2.00000000000
      4.20645812828    2.10322906414   -6.30968719243   -2.00000000000
      4.20645812828   -2.10322906414   -6.30968719243   -2.00000000000
      2.10322906414   -4.20645812828   -6.30968719243   -2.00000000000
     -2.10322906414   -4.20645812828   -6.30968719243   -2.00000000000
     -4.20645812828   -2.10322906414   -6.30968719243   -2.00000000000
      0.00000000000    0.00000000000    8.41291625657   -2.00000000000
     -8.41291625657    0.00000000000    0.00000000000   -2.00000000000
      0.00000000000    8.41291625657    0.00000000000   -2.00000000000
      8.41291625657    0.00000000000    0.00000000000   -2.00000000000
      0.00000000000   -8.41291625657    0.00000000000   -2.00000000000
      0.00000000000    0.00000000000   -8.41291625657   -2.00000000000
     -2.10322906414    0.00000000000    8.41291625657    2.00000000000
      0.00000000000    2.10322906414    8.41291625657    2.00000000000
      2.10322906414    0.00000000000    8.41291625657    2.00000000000
      0.00000000000   -2.10322906414    8.41291625657    2.00000000000
     -4.20645812828    4.20645812828    6.30968719243    2.00000000000
      4.20645812828    4.20645812828    6.30968719243    2.00000000000
      4.20645812828   -4.20645812828    6.30968719243    2.00000000000
     -4.20645812828   -4.20645812828    6.30968719243    2.00000000000
     -6.30968719243    4.20645812828    4.20645812828    2.00000000000
     -4.20645812828    6.30968719243    4.20645812828    2.00000000000
      4.20645812828    6.30968719243    4.20645812828    2.00000000000
      6.30968719243    4.20645812828    4.20645812828    2.00000000000
      6.30968719243   -4.20645812828    4.20645812828    2.00000000000
      4.20645812828   -6.30968719243    4.20645812828    2.00000000000
     -4.20645812828   -6.30968719243    4.20645812828    2.00000000000
     -6.30968719243   -4.20645812828    4.20645812828    2.00000000000
     -8.41291625657    0.00000000000    2.10322906414    2.00000000000
      0.00000000000    8.41291625657    2.10322906414    2.00000000000
      8.41291625657    0.00000000000    2.10322906414    2.00000000000
      0.00000000000   -8.41291625657    2.10322906414    2.00000000000
     -8.41291625657    2.10322906414    0.00000000000    2.00000000000
     -2.10322906414    8.41291625657    0.00000000000    2.00000000000
      2.10322906414    8.41291625657    0.00000000000    2.00000000000
      8.41291625657    2.10322906414    0.00000000000    2.00000000000
      8.41291625657   -2.10322906414    0.00000000000    2.00000000000
      2.10322906414   -8.41291625657    0.00000000000    2.00000000000
     -2.10322906414   -8.41291625657    0.00000000000    2.00000000000
     -8.41291625657   -2.10322906414    0.00000000000    2.00000000000
     -8.41291625657    0.00000000000   -2.10322906414    2.00000000000
      0.00000000000    8.41291625657   -2.10322906414    2.00000000000
      8.41291625657    0.00000000000   -2.10322906414    2.00000000000
      0.00000000000   -8.41291625657   -2.10322906414    2.00000000000
     -6.30968719243    4.20645812828   -4.20645812828    2.00000000000
     -4.20645812828    6.30968719243   -4.20645812828    2.00000000000
      4.20645812828    6.30968719243   -4.20645812828    2.00000000000
      6.30968719243    4.20645812828   -4.20645812828    2.00000000000
      6.30968719243   -4.20645812828   -4.20645812828    2.00000000000
      4.20645812828   -6.30968719243   -4.20645812828    2.00000000000
     -4.20645812828   -6.30968719243   -4.20645812828    2.00000000000
     -6.30968719243   -4.20645812828   -4.20645812828    2.00000000000
     -4.20645812828    4.20645812828   -6.30968719243    2.00000000000
      4.20645812828    4.20645812828   -6.30968719243    2.00000000000
      4.20645812828   -4.20645812828   -6.30968719243    2.00000000000
     -4.20645812828   -4.20645812828   -6.30968719243    2.00000000000
     -2.10322906414    0.00000000000   -8.41291625657    2.00000000000
      0.00000000000    2.10322906414   -8.41291625657    2.00000000000
      2.10322906414    0.00000000000   -8.41291625657    2.00000000000
      0.00000000000   -2.10322906414   -8.41291625657    2.00000000000
     -2.10322906414    2.10322906414    8.41291625657   -2.00000000000
      2.10322906414    2.10322906414    8.41291625657   -2.00000000000
      2.10322906414   -2.10322906414    8.41291625657   -2.00000000000
     -2.10322906414   -2.10322906414    8.41291625657   -2.00000000000
     -6.30968719243    0.00000000000    6.30968719243   -2.00000000000
      0.00000000000    6.30968719243    6.30968719243   -2.00000000000
      6.30968719243    0.00000000000    6.30968719243   -2.00000000000
      0.00000000000   -6.30968719243    6.30968719243   -2.00000000000
     -8.41291625657    2.10322906414    2.10322906414   -2.00000000000
     -2.10322906414    8.41291625657    2.10322906414   -2.00000000000
      2.10322906414    8.41291625657    2.10322906414   -2.00000000000
      8.41291625657    2.10322906414    2.10322906414   -2.00000000000
      8.41291625657   -2.10322906414    2.10322906414   -2.00000000000
      2.10322906414   -8.41291625657    2.10322906414   -2.00000000000
     -2.10322906414   -8.41291625657    2.10322906414   -2.00000000000
     -8.41291625657   -2.10322906414    2.10322906414   -2.00000000000
     -6.30968719243    6.30968719243    0.00000000000   -2.00000000000
      6.30968719243    6.30968719243    0.00000000000   -2.00000000000
      6.30968719243   -6.30968719243    0.00000000000   -2.00000000000
     -6.30968719243   -6.30968719243    0.00000000000   -2.00000000000
     -8.41291625657    2.10322906414   -2.10322906414   -2.00000000000
     -2.10322906414    8.41291625657   -2.10322906414   -2.00000000000
      2.10322906414    8.41291625657   -2.10322906414   -2.00000000000
      8.41291625657    2.10322906414   -2.10322906414   -2.00000000000
      8.41291625657   -2.10322906414   -2.10322906414   -2.00000000000
      2.10322906414   -8.41291625657   -2.10322906414   -2.00000000000
     -2.10322906414   -8.41291625657   -2.10322906414   -2.00000000000
     -8.41291625657   -2.10322906414   -2.10322906414   -2.00000000000
     -6.30968719243    0.00000000000   -6.30968719243   -2.00000000000
      0.00000000000    6.30968719243   -6.30968719243   -2.00000000000
      6.30968719243    0.00000000000   -6.30968719243   -2.00000000000
      0.00000000000   -6.30968719243   -6.30968719243   -2.00000000000
     -2.10322906414    2.10322906414   -8.41291625657   -2.00000000000
      2.10322906414    2.10322906414   -8.41291625657   -2.00000000000
      2.10322906414   -2.10322906414   -8.41291625657   -2.00000000000
     -2.10322906414   -2.10322906414   -8.41291625657   -2.00000000000
     -6.30968719243    2.10322906414    6.30968719243    2.00000000000
     -2.10322906414    6.30968719243    6.30968719243    2.00000000000
      2.10322906414    6.30968719243    6.30968719243    2.00000000000
      6.30968719243    2.10322906414    6.30968719243    2.00000000000
      6.30968719243   -2.10322906414    6.30968719243    2.00000000000
      2.10322906414   -6.30968719243    6.30968719243    2.00000000000
     -2.10322906414   -6.30968719243    6.30968719243    2.00000000000
     -6.30968719243   -2.10322906414    6.30968719243    2.00000000000
     -6.30968719243    6.30968719243    2.10322906414    2.00000000000
      6.30968719243    6.30968719243    2.10322906414    2.00000000000
      6.30968719243   -6.30968719243    2.10322906414    2.00000000000
     -6.30968719243   -6.30968719243    2.10322906414    2.00000000000
     -6.30968719243    6.30968719243   -2.10322906414    2.00000000000
      6.30968719243    6.30968719243   -2.10322906414    2.00000000000
      6.30968719243   -6.30968719243   -2.10322906414    2.00000000000
     -6.30968719243   -6.30968719243   -2.10322906414    2.00000000000
     -6.30968719243    2.10322906414   -6.30968719243    2.00000000000
     -2.10322906414    6.30968719243   -6.30968719243    2.00000000000
      2.10322906414    6.30968719243   -6.30968719243    2.00000000000
      6.30968719243    2.10322906414   -6.30968719243    2.00000000000
      6.30968719243   -2.10322906414   -6.30968719243    2.00000000000
      2.10322906414   -6.30968719243   -6.30968719243    2.00000000000
     -2.10322906414   -6.30968719243   -6.30968719243    2.00000000000
     -6.30968719243   -2.10322906414   -6.30968719243    2.00000000000
     -4.20645812828    0.00000000000    8.41291625657   -2.00000000000
      0.00000000000    4.20645812828    8.41291625657   -2.00000000000
      4.20645812828    0.00000000000    8.41291625657   -2.00000000000
      0.00000000000   -4.20645812828    8.41291625657   -2.00000000000
     -8.41291625657    0.00000000000    4.20645812828   -2.00000000000
      0.00000000000    8.41291625657    4.20645812828   -2.00000000000
      8.41291625657    0.00000000000    4.20645812828   -2.00000000000
      0.00000000000   -8.41291625657    4.20645812828   -2.00000000000
     -8.41291625657    4.20645812828    0.00000000000   -2.00000000000
     -4.20645812828    8.41291625657    0.00000000000   -2.00000000000
      4.20645812828    8.41291625657    0.00000000000   -2.00000000000
      8.41291625657    4.20645812828    0.00000000000   -2.00000000000
      8.41291625657   -4.20645812828    0.00000000000   -2.00000000000
      4.20645812828   -8.41291625657    0.00000000000   -2.00000000000
     -4.20645812828   -8.41291625657    0.00000000000   -2.00000000000
     -8.41291625657   -4.20645812828    0.00000000000   -2.00000000000
     -8.41291625657    0.00000000000   -4.20645812828   -2.00000000000
      0.00000000000    8.41291625657   -4.20645812828   -2.00000000000
      8.41291625657    0.00000000000   -4.20645812828   -2.00000000000
      0.00000000000   -8.41291625657   -4.20645812828   -2.00000000000
     -4.20645812828    0.00000000000   -8.41291625657   -2.00000000000
      0.00000000000    4.20645812828   -8.41291625657   -2.00000000000
      4.20645812828    0.00000000000   -8.41291625657   -2.00000000000
      0.00000000000   -4.20645812828   -8.41291625657   -2.00000000000
     -4.20645812828    2.10322906414    8.41291625657    2.00000000000
     -2.10322906414    4.20645812828    8.41291625657    2.00000000000
      2.10322906414    4.20645812828    8.41291625657    2.00000000000
      4.20645812828    2.10322906414    8.41291625657    2.00000000000
      4.20645812828   -2.10322906414    8.41291625657    2.00000000000
      2.10322906414   -4.20645812828    8.41291625657    2.00000000000
     -2.10322906414   -4.20645812828    8.41291625657    2.00000000000
     -4.20645812828   -2.10322906414    8.41291625657    2.00000000000
     -8.41291625657    2.10322906414    4.20645812828    2.00000000000
     -2.10322906414    8.41291625657    4.20645812828    2.00000000000
      2.10322906414    8.41291625657    4.20645812828    2.00000000000
      8.41291625657    2.10322906414    4.20645812828    2.00000000000
      8.41291625657   -2.10322906414    4.20645812828    2.00000000000
      2.10322906414   -8.41291625657    4.20645812828    2.00000000000
     -2.10322906414   -8.41291625657    4.20645812828    2.00000000000
     -8.41291625657   -2.10322906414    4.20645812828    2.00000000000
     -8.41291625657    4.20645812828    2.10322906414    2.00000000000
     -4.20645812828    8.41291625657    2.10322906414    2.00000000000
      4.20645812828    8.41291625657    2.10322906414    2.00000000000
      8.41291625657    4.20645812828    2.10322906414    2.00000000000
      8.41291625657   -4.20645812828    2.10322906414    2.00000000000
      4.20645812828   -8.41291625657    2.10322906414    2.00000000000
     -4.20645812828   -8.41291625657    2.10322906414    2.00000000000
     -8.41291625657   -4.20645812828    2.10322906414    2.00000000000
     -8.41291625657    4.20645812828   -2.10322906414    2.00000000000
     -4.20645812828    8.41291625657   -2.10322906414    2.00000000000
      4.20645812828    8.41291625657   -2.10322906414    2.00000000000
      8.41291625657    4.20645812828   -2.10322906414    2.00000000000
      8.41291625657   -4.20645812828   -2.10322906414    2.00000000000
      4.20645812828   -8.41291625657   -2.10322906414    2.00000000000
     -4.20645812828   -8.41291625657   -2.10322906414    2.00000000000
     -8.41291625657   -4.20645812828   -2.10322906414    2.00000000000
     -8.41291625657    2.10322906414   -4.20645812828    2.00000000000
     -2.10322906414    8.41291625657   -4.20645812828    2.00000000000
      2.10322906414    8.41291625657   -4.20645812828    2.00000000000
      8.41291625657    2.10322906414   -4.20645812828    2.00000000000
      8.41291625657   -2.10322906414   -4.20645812828    2.00000000000
      2.10322906414   -8.41291625657   -4.20645812828    2.00000000000
     -2.10322906414   -8.41291625657   -4.20645812828    2.00000000000
     -8.41291625657   -2.10322906414   -4.20645812828    2.00000000000
     -4.20645812828    2.10322906414   -8.41291625657    2.00000000000
     -2.10322906414    4.20645812828   -8.41291625657    2.00000000000
      2.10322906414    4.20645812828   -8.41291625657    2.00000000000
      4.20645812828    2.10322906414   -8.41291625657    2.00000000000
      4.20645812828   -2.10322906414   -8.41291625657    2.00000000000
      2.10322906414   -4.20645812828   -8.41291625657    2.00000000000
     -2.10322906414   -4.20645812828   -8.41291625657    2.00000000000
     -4.20645812828   -2.10322906414   -8.41291625657    2.00000000000
      0.00000000000    0.00000000000   10.51614532071    2.00000000000
    -10.51614532071    0.00000000000    0.00000000000    2.00000000000
      0.00000000000   10.51614532071    0.00000000000    2.00000000000
     10.51614532071    0.00000000000    0.00000000000    2.00000000000
      0.00000000000  -10.51614532071    0.00000000000    2.00000000000
      0.00000000000    0.00000000000  -10.51614532071    2.00000000000
     -2.10322906414    0.00000000000   10.51614532071   -2.00000000000
      0.00000000000    2.10322906414   10.51614532071   -2.00000000000
      2.10322906414    0.00000000000   10.51614532071   -2.00000000000
      0.00000000000   -2.10322906414   10.51614532071   -2.00000000000
    -10.51614532071    0.00000000000    2.10322906414   -2.00000000000
      0.00000000000   10.51614532071    2.10322906414   -2.00000000000
     10.51614532071    0.00000000000    2.10322906414   -2.00000000000
      0.00000000000  -10.51614532071    2.10322906414   -2.00000000000
    -10.51614532071    2.10322906414    0.00000000000   -2.00000000000
     -2.10322906414   10.51614532071    0.00000000000   -2.00000000000
      2.10322906414   10.51614532071    0.00000000000   -2.00000000000
     10.51614532071    2.10322906414    0.00000000000   -2.00000000000
     10.51614532071   -2.10322906414    0.00000000000   -2.00000000000
      2.10322906414  -10.51614532071    0.00000000000   -2.00000000000
     -2.10322906414  -10.51614532071    0.00000000000   -2.00000000000
    -10.51614532071   -2.10322906414    0.00000000000   -2.00000000000
    -10.51614532071    0.00000000000   -2.10322906414   -2.00000000000
      0.00000000000   10.51614532071   -2.10322906414   -2.00000000000
     10.51614532071    0.00000000000   -2.10322906414   -2.00000000000
      0.00000000000  -10.51614532071   -2.10322906414   -2.00000000000
     -2.10322906414    0.00000000000  -10.51614532071   -2.00000000000
      0.00000000000    2.10322906414  -10.51614532071   -2.00000000000
      2.10322906414    0.00000000000  -10.51614532071   -2.00000000000
      0.00000000000   -2.10322906414  -10.51614532071   -2.00000000000
     -2.10322906414    2.10322906414   10.51614532071    2.00000000000
      2.10322906414    2.10322906414   10.51614532071    2.00000000000
      2.10322906414   -2.10322906414   10.51614532071    2.00000000000
     -2.10322906414   -2.10322906414   10.51614532071    2.00000000000
    -10.51614532071    2.10322906414    2.10322906414    2.00000000000
     -2.10322906414   10.51614532071    2.10322906414    2.00000000000
      2.10322906414   10.51614532071    2.10322906414    2.00000000000
     10.51614532071    2.10322906414    2.10322906414    2.00000000000
     10.51614532071   -2.10322906414    2.10322906414    2.00000000000
      2.10322906414  -10.51614532071    2.10322906414    2.00000000000
     -2.10322906414  -10.51614532071    2.10322906414    2.00000000000
    -10.51614532071   -2.10322906414    2.10322906414    2.00000000000
    -10.51614532071    2.10322906414   -2.10322906414    2.00000000000
     -2.10322906414   10.51614532071   -2.10322906414    2.00000000000
      2.10322906414   10.51614532071   -2.10322906414    2.00000000000
     10.51614532071    2.10322906414   -2.10322906414    2.00000000000
     10.51614532071   -2.10322906414   -2.10322906414    2.00000000000
      2.10322906414  -10.51614532071   -2.10322906414    2.00000000000
     -2.10322906414  -10.51614532071   -2.10322906414    2.00000000000
    -10.51614532071   -2.10322906414   -2.10322906414    2.00000000000
     -2.10322906414    2.10322906414  -10.51614532071    2.00000000000
      2.10322906414    2.10322906414  -10.51614532071    2.00000000000
      2.10322906414   -2.10322906414  -10.51614532071    2.00000000000
     -2.10322906414   -2.10322906414  -10.51614532071    2.00000000000
     -6.30968719243    4.20645812828    6.30968719243   -2.00000000000
     -4.20645812828    6.30968719243    6.30968719243   -2.00000000000
      4.20645812828    6.30968719243    6.30968719243   -2.00000000000
      6.30968719243    4.20645812828    6.30968719243   -2.00000000000
      6.30968719243   -4.20645812828    6.30968719243   -2.00000000000
      4.20645812828   -6.30968719243    6.30968719243   -2.00000000000
     -4.20645812828   -6.30968719243    6.30968719243   -2.00000000000
     -6.30968719243   -4.20645812828    6.30968719243   -2.00000000000
     -6.30968719243    6.30968719243    4.20645812828   -2.00000000000
      6.30968719243    6.30968719243    4.20645812828   -2.00000000000
      6.30968719243   -6.30968719243    4.20645812828   -2.00000000000
     -6.30968719243   -6.30968719243    4.20645812828   -2.00000000000
     -6.30968719243    6.30968719243   -4.20645812828   -2.00000000000
      6.30968719243    6.30968719243   -4.20645812828   -2.00000000000
      6.30968719243   -6.30968719243   -4.20645812828   -2.00000000000
     -6.30968719243   -6.30968719243   -4.20645812828   -2.00000000000
     -6.30968719243    4.20645812828   -6.30968719243   -2.00000000000
     -4.20645812828    6.30968719243   -6.30968719243   -2.00000000000
      4.20645812828    6.30968719243   -6.30968719243   -2.00000000000
      6.30968719243    4.20645812828   -6.30968719243   -2.00000000000
      6.30968719243   -4.20645812828   -6.30968719243   -2.00000000000
      4.20645812828   -6.30968719243   -6.30968719243   -2.00000000000
     -4.20645812828   -6.30968719243   -6.30968719243   -2.00000000000
     -6.30968719243   -4.20645812828   -6.30968719243   -2.00000000000
     -4.20645812828    4.20645812828    8.41291625657   -2.00000000000
      4.20645812828    4.20645812828    8.41291625657   -2.00000000000
      4.20645812828   -4.20645812828    8.41291625657   -2.00000000000
     -4.20645812828   -4.20645812828    8.41291625657   -2.00000000000
     -8.41291625657    4.20645812828    4.20645812828   -2.00000000000
     -4.20645812828    8.41291625657    4.20645812828   -2.00000000000
      4.20645812828    8.41291625657    4.20645812828   -2.00000000000
      8.41291625657    4.20645812828    4.20645812828   -2.00000000000
      8.41291625657   -4.20645812828    4.20645812828   -2.00000000000
      4.20645812828   -8.41291625657    4.20645812828   -2.00000000000
     -4.20645812828   -8.41291625657    4.20645812828   -2.00000000000
     -8.41291625657   -4.20645812828    4.20645812828   -2.00000000000
     -8.41291625657    4.20645812828   -4.20645812828   -2.00000000000
     -4.20645812828    8.41291625657   -4.20645812828   -2.00000000000
      4.20645812828    8.41291625657   -4.20645812828   -2.00000000000
      8.41291625657    4.20645812828   -4.20645812828   -2.00000000000
      8.41291625657   -4.20645812828   -4.20645812828   -2.00000000000
      4.20645812828   -8.41291625657   -4.20645812828   -2.00000000000
     -4.20645812828   -8.41291625657   -4.20645812828   -2.00000000000
     -8.41291625657   -4.20645812828   -4.20645812828   -2.00000000000
     -4.20645812828    4.20645812828   -8.41291625657   -2.00000000000
      4.20645812828    4.20645812828   -8.41291625657   -2.00000000000
      4.20645812828   -4.20645812828   -8.41291625657   -2.00000000000
     -4.20645812828   -4.20645812828   -8.41291625657   -2.00000000000
     -6.30968719243    0.00000000000    8.41291625657    2.00000000000
      0.00000000000    6.30968719243    8.41291625657    2.00000000000
      6.30968719243    0.00000000000    8.41291625657    2.00000000000
      0.00000000000   -6.30968719243    8.41291625657    2.00000000000
     -8.41291625657    0.00000000000    6.30968719243    2.00000000000
      0.00000000000    8.41291625657    6.30968719243    2.00000000000
      8.41291625657    0.00000000000    6.30968719243    2.00000000000
      0.00000000000   -8.41291625657    6.30968719243    2.00000000000
     -8.41291625657    6.30968719243    0.00000000000    2.00000000000
     -6.30968719243    8.41291625657    0.00000000000    2.00000000000
      6.30968719243    8.41291625657    0.00000000000    2.00000000000
      8.41291625657    6.30968719243    0.00000000000    2.00000000000
      8.41291625657   -6.30968719243    0.00000000000    2.00000000000
      6.30968719243   -8.41291625657    0.00000000000    2.00000000000
     -6.30968719243   -8.41291625657    0.00000000000    2.00000000000
     -8.41291625657   -6.30968719243    0.00000000000    2.00000000000
     -8.41291625657    0.00000000000   -6.30968719243    2.00000000000
      0.00000000000    8.41291625657   -6.30968719243    2.00000000000
      8.41291625657    0.00000000000   -6.30968719243    2.00000000000
      0.00000000000   -8.41291625657   -6.30968719243    2.00000000000
     -6.30968719243    0.00000000000   -8.41291625657    2.00000000000
      0.00000000000    6.30968719243   -8.41291625657    2.00000000000
      6.30968719243    0.00000000000   -8.41291625657    2.00000000000
      0.00000000000   -6.30968719243   -8.41291625657    2.00000000000
     -6.30968719243    2.10322906414    8.41291625657   -2.00000000000
     -2.10322906414    6.30968719243    8.41291625657   -2.00000000000
      2.10322906414    6.30968719243    8.41291625657   -2.00000000000
      6.30968719243    2.10322906414    8.41291625657   -2.00000000000
      6.30968719243   -2.10322906414    8.41291625657   -2.00000000000
      2.10322906414   -6.30968719243    8.41291625657   -2.00000000000
     -2.10322906414   -6.30968719243    8.41291625657   -2.00000000000
     -6.30968719243   -2.10322906414    8.41291625657   -2.00000000000
     -8.41291625657    2.10322906414    6.30968719243   -2.00000000000
     -2.10322906414    8.41291625657    6.30968719243   -2.00000000000
      2.10322906414    8.41291625657    6.30968719243   -2.00000000000
      8.41291625657    2.10322906414    6.30968719243   -2.00000000000
      8.41291625657   -2.10322906414    6.30968719243   -2.00000000000
      2.10322906414   -8.41291625657    6.30968719243   -2.00000000000
     -2.10322906414   -8.41291625657    6.30968719243   -2.00000000000
     -8.41291625657   -2.10322906414    6.30968719243   -2.00000000000
     -8.41291625657    6.30968719243    2.10322906414   -2.00000000000
     -6.30968719243    8.41291625657    2.10322906414   -2.00000000000
      6.30968719243    8.41291625657    2.10322906414   -2.00000000000
      8.41291625657    6.30968719243    2.10322906414   -2.00000000000
      8.41291625657   -6.30968719243    2.10322906414   -2.00000000000
      6.30968719243   -8.41291625657    2.10322906414   -2.00000000000
     -6.30968719243   -8.41291625657    2.10322906414   -2.00000000000
     -8.41291625657   -6.30968719243    2.10322906414   -2.00000000000
     -8.41291625657    6.30968719243   -2.10322906414   -2.00000000000
     -6.30968719243    8.41291625657   -2.10322906414   -2.00000000000
      6.30968719243    8.41291625657   -2.10322906414   -2.00000000000
      8.41291625657    6.30968719243   -2.10322906414   -2.00000000000
      8.41291625657   -6.30968719243   -2.10322906414   -2.00000000000
      6.30968719243   -8.41291625657   -2.10322906414   -2.00000000000
     -6.30968719243   -8.41291625657   -2.10322906414   -2.00000000000
     -8.41291625657   -6.30968719243   -2.10322906414   -2.00000000000
     -8.41291625657    2.10322906414   -6.30968719243   -2.00000000000
     -2.10322906414    8.41291625657   -6.30968719243   -2.00000000000
      2.10322906414    8.41291625657   -6.30968719243   -2.00000000000
      8.41291625657    2.10322906414   -6.30968719243   -2.00000000000
      8.41291625657   -2.10322906414   -6.30968719243   -2.00000000000
      2.10322906414   -8.41291625657   -6.30968719243   -2.00000000000
     -2.10322906414   -8.41291625657   -6.30968719243   -2.00000000000
     -8.41291625657   -2.10322906414   -6.30968719243   -2.00000000000
     -6.30968719243    2.10322906414   -8.41291625657   -2.00000000000
     -2.10322906414    6.30968719243   -8.41291625657   -2.00000000000
      2.10322906414    6.30968719243   -8.41291625657   -2.00000000000
      6.30968719243    2.10322906414   -8.41291625657   -2.00000000000
      6.30968719243   -2.10322906414   -8.41291625657   -2.00000000000
      2.10322906414   -6.30968719243   -8.41291625657   -2.00000000000
     -2.10322906414   -6.30968719243   -8.41291625657   -2.00000000000
     -6.30968719243   -2.10322906414   -8.41291625657   -2.00000000000
     -6.30968719243    6.30968719243    6.30968719243    2.00000000000
      6.30968719243    6.30968719243    6.30968719243    2.00000000000
      6.30968719243   -6.30968719243    6.30968719243    2.00000000000
     -6.30968719243   -6.30968719243    6.30968719243    2.00000000000
     -6.30968719243    6.30968719243   -6.30968719243    2.00000000000
      6.30968719243    6.30968719243   -6.30968719243    2.00000000000
      6.30968719243   -6.30968719243   -6.30968719243    2.00000000000
     -6.30968719243   -6.30968719243   -6.30968719243    2.00000000000
     -4.20645812828    0.00000000000   10.51614532071    2.00000000000
      0.00000000000    4.20645812828   10.51614532071    2.00000000000
      4.20645812828    0.00000000000   10.51614532071    2.00000000000
      0.00000000000   -4.20645812828   10.51614532071    2.00000000000
     -6.30968719243    4.20645812828    8.41291625657    2.00000000000
     -4.20645812828    6.30968719243    8.41291625657    2.00000000000
      4.20645812828    6.30968719243    8.41291625657    2.00000000000
      6.30968719243    4.20645812828    8.41291625657    2.00000000000
      6.30968719243   -4.20645812828    8.41291625657    2.00000000000
      4.20645812828   -6.30968719243    8.41291625657    2.00000000000
     -4.20645812828   -6.30968719243    8.41291625657    2.00000000000
     -6.30968719243   -4.20645812828    8.41291625657    2.00000000000
     -8.41291625657    4.20645812828    6.30968719243    2.00000000000
     -4.20645812828    8.41291625657    6.30968719243    2.00000000000
      4.20645812828    8.41291625657    6.30968719243    2.00000000000
      8.41291625657    4.20645812828    6.30968719243    2.00000000000
      8.41291625657   -4.20645812828    6.30968719243    2.00000000000
      4.20645812828   -8.41291625657    6.30968719243    2.00000000000
     -4.20645812828   -8.41291625657    6.30968719243    2.00000000000
     -8.41291625657   -4.20645812828    6.30968719243    2.00000000000
    -10.51614532071    0.00000000000    4.20645812828    2.00000000000
     -8.41291625657    6.30968719243    4.20645812828    2.00000000000
     -6.30968719243    8.41291625657    4.20645812828    2.00000000000
      0.00000000000   10.51614532071    4.20645812828    2.00000000000
      6.30968719243    8.41291625657    4.20645812828    2.00000000000
      8.41291625657    6.30968719243    4.20645812828    2.00000000000
     10.51614532071    0.00000000000    4.20645812828    2.00000000000
      8.41291625657   -6.30968719243    4.20645812828    2.00000000000
      6.30968719243   -8.41291625657    4.20645812828    2.00000000000
      0.00000000000  -10.51614532071    4.20645812828    2.00000000000
     -6.30968719243   -8.41291625657    4.20645812828    2.00000000000
     -8.41291625657   -6.30968719243    4.20645812828    2.00000000000
    -10.51614532071    4.20645812828    0.00000000000    2.00000000000
     -4.20645812828   10.51614532071    0.00000000000    2.00000000000
      4.20645812828   10.51614532071    0.00000000000    2.00000000000
     10.51614532071    4.20645812828    0.00000000000    2.00000000000
     10.51614532071   -4.20645812828    0.00000000000    2.00000000000
      4.20645812828  -10.51614532071    0.00000000000    2.00000000000
     -4.20645812828  -10.51614532071    0.00000000000    2.00000000000
    -10.51614532071   -4.20645812828    0.00000000000    2.00000000000
    -10.51614532071    0.00000000000   -4.20645812828    2.00000000000
     -8.41291625657    6.30968719243   -4.20645812828    2.00000000000
     -6.30968719243    8.41291625657   -4.20645812828    2.00000000000
      0.00000000000   10.51614532071   -4.20645812828    2.00000000000
      6.30968719243    8.41291625657   -4.20645812828    2.00000000000
      8.41291625657    6.30968719243   -4.20645812828    2.00000000000
     10.51614532071    0.00000000000   -4.20645812828    2.00000000000
      8.41291625657   -6.30968719243   -4.20645812828    2.00000000000
      6.30968719243   -8.41291625657   -4.20645812828    2.00000000000
      0.00000000000  -10.51614532071   -4.20645812828    2.00000000000
     -6.30968719243   -8.41291625657   -4.20645812828    2.00000000000
     -8.41291625657   -6.30968719243   -4.20645812828    2.00000000000
     -8.41291625657    4.20645812828   -6.30968719243    2.00000000000
     -4.20645812828    8.41291625657   -6.30968719243    2.00000000000
      4.20645812828    8.41291625657   -6.30968719243    2.00000000000
      8.41291625657    4.20645812828   -6.30968719243    2.00000000000
      8.41291625657   -4.20645812828   -6.30968719243    2.00000000000
      4.20645812828   -8.41291625657   -6.30968719243    2.00000000000
     -4.20645812828   -8.41291625657   -6.30968719243    2.00000000000
     -8.41291625657   -4.20645812828   -6.30968719243    2.00000000000
     -6.30968719243    4.20645812828   -8.41291625657    2.00000000000
     -4.20645812828    6.30968719243   -8.41291625657    2.00000000000
      4.20645812828    6.30968719243   -8.41291625657    2.00000000000
      6.30968719243    4.20645812828   -8.41291625657    2.00000000000
      6.30968719243   -4.20645812828   -8.41291625657    2.00000000000
      4.20645812828   -6.30968719243   -8.41291625657    2.00000000000
     -4.20645812828   -6.30968719243   -8.41291625657    2.00000000000
     -6.30968719243   -4.20645812828   -8.41291625657    2.00000000000
     -4.20645812828    0.00000000000  -10.51614532071    2.00000000000
      0.00000000000    4.20645812828  -10.51614532071    2.00000000000
      4.20645812828    0.00000000000  -10.51614532071    2.00000000000
      0.00000000000   -4.20645812828  -10.51614532071    2.00000000000
     -4.20645812828    2.10322906414   10.51614532071   -2.00000000000
     -2.10322906414    4.20645812828   10.51614532071   -2.00000000000
      2.10322906414    4.20645812828   10.51614532071   -2.00000000000
      4.20645812828    2.10322906414   10.51614532071   -2.00000000000
      4.20645812828   -2.10322906414   10.51614532071   -2.00000000000
      2.10322906414   -4.20645812828   10.51614532071   -2.00000000000
     -2.10322906414   -4.20645812828   10.51614532071   -2.00000000000
     -4.20645812828   -2.10322906414   10.51614532071   -2.00000000000
    -10.51614532071    2.10322906414    4.20645812828   -2.00000000000
     -2.10322906414   10.51614532071    4.20645812828   -2.00000000000
      2.10322906414   10.51614532071    4.20645812828   -2.00000000000
     10.51614532071    2.10322906414    4.20645812828   -2.00000000000
     10.51614532071   -2.10322906414    4.20645812828   -2.00000000000
      2.10322906414  -10.51614532071    4.20645812828   -2.00000000000
     -2.10322906414  -10.51614532071    4.20645812828   -2.00000000000
    -10.51614532071   -2.10322906414    4.20645812828   -2.00000000000
    -10.51614532071    4.20645812828    2.10322906414   -2.00000000000
     -4.20645812828   10.51614532071    2.10322906414   -2.00000000000
      4.20645812828   10.51614532071    2.10322906414   -2.00000000000
     10.51614532071    4.20645812828    2.10322906414   -2.00000000000
     10.51614532071   -4.20645812828    2.10322906414   -2.00000000000
      4.20645812828  -10.51614532071    2.10322906414   -2.00000000000
     -4.20645812828  -10.51614532071    2.10322906414   -2.00000000000
    -10.51614532071   -4.20645812828    2.10322906414   -2.00000000000
    -10.51614532071    4.20645812828   -2.10322906414   -2.00000000000
     -4.20645812828   10.51614532071   -2.10322906414   -2.00000000000
      4.20645812828   10.51614532071   -2.10322906414   -2.00000000000
     10.51614532071    4.20645812828   -2.10322906414   -2.00000000000
     10.51614532071   -4.20645812828   -2.10322906414   -2.00000000000
      4.20645812828  -10.51614532071   -2.10322906414   -2.00000000000
     -4.20645812828  -10.51614532071   -2.10322906414   -2.00000000000
    -10.51614532071   -4.20645812828   -2.10322906414   -2.00000000000
    -10.51614532071    2.10322906414   -4.20645812828   -2.00000000000
     -2.10322906414   10.51614532071   -4.20645812828   -2.00000000000
      2.10322906414   10.51614532071   -4.20645812828   -2.00000000000
     10.51614532071    2.10322906414   -4.20645812828   -2.00000000000
     10.51614532071   -2.10322906414   -4.20645812828   -2.00000000000
      2.10322906414  -10.51614532071   -4.20645812828   -2.00000000000
     -2.10322906414  -10.51614532071   -4.20645812828   -2.00000000000
    -10.51614532071   -2.10322906414   -4.20645812828   -2.00000000000
     -4.20645812828    2.10322906414  -10.51614532071   -2.00000000000
     -2.10322906414    4.20645812828  -10.51614532071   -2.00000000000
      2.10322906414    4.20645812828  -10.51614532071   -2.00000000000
      4.20645812828    2.10322906414  -10.51614532071   -2.00000000000
      4.20645812828   -2.10322906414  -10.51614532071   -2.00000000000
      2.10322906414   -4.20645812828  -10.51614532071   -2.00000000000
     -2.10322906414   -4.20645812828  -10.51614532071   -2.00000000000
     -4.20645812828   -2.10322906414  -10.51614532071   -2.00000000000
     -8.41291625657    0.00000000000    8.41291625657   -2.00000000000
      0.00000000000    8.41291625657    8.41291625657   -2.00000000000
      8.41291625657    0.00000000000    8.41291625657   -2.00000000000
      0.00000000000   -8.41291625657    8.41291625657   -2.00000000000
     -8.41291625657    8.41291625657    0.00000000000   -2.00000000000
      8.41291625657    8.41291625657    0.00000000000   -2.00000000000
      8.41291625657   -8.41291625657    0.00000000000   -2.00000000000
     -8.41291625657   -8.41291625657    0.00000000000   -2.00000000000
     -8.41291625657    0.00000000000   -8.41291625657   -2.00000000000
      0.00000000000    8.41291625657   -8.41291625657   -2.00000000000
      8.41291625657    0.00000000000   -8.41291625657   -2.00000000000
      0.00000000000   -8.41291625657   -8.41291625657   -2.00000000000
     -4.20645812828    4.20645812828   10.51614532071    2.00000000000
      4.20645812828    4.20645812828   10.51614532071    2.00000000000
      4.20645812828   -4.20645812828   10.51614532071    2.00000000000
[...]
 Number of atoms for local DF:   25
 Number of fitting functions:  7379 (100.00%)
 Number of occupied orbitals:    33
 Number of virtual  orbitals:  1749
 Number of Cholesky vectors:      7
 MP2 energy in ED [au]:          -0.075715579062
 Number of occupied LNOs:        21  (63.64%)
 Number of virtual  LNOs:        82   (4.69%)
 tol*100>norm                   438  9.605476025435626E-003
 tol*100>norm                   598  9.605535326997986E-003
 tol*100>norm                   678  9.588517563272822E-003
 tol*100>norm                   918  9.602497859374261E-003
 tol*100>norm                   998  9.608044189698536E-003
 tol*100>norm                  1398  8.422362965256834E-003
 tol*100>norm                  1718  8.423833513253105E-003
 avg/min projected vLNO norm    1.0000E+00    1.0000E+00
 Number of Cholesky vectors:      6
 MP2 energy in LIS [au]:         -0.073763792258
 Correction for frozen LNO [au]: -0.001951786805     (2.578%)
 Number of NAFs:                304   (4.12%)
 CPU time [min]: 14635.322                   Wall time [min]:   240.737
 

 Direct DF-CCSD(T) calculation
 
 Convergence criterion:  1.0E-05
 
 Number of occupied/virtual/auxiliary orbitals:    21    82   304
    366.25 MB is the minimal memory requirement for (T)
    322.30 MB is the minimal memory requirement for CCSD
 
 MP2 correlation energy [au]:        -0.520028784293
 
 LMP2 domain correlation energy contribution [au]:       -0.073764001683
 
 CPU time [min]: 14635.441                   Wall time [min]:   240.738
 
 
 Starting CCSD iterations...
 
                     Residual norm       Correlation Energy
 Iteration  1        0.192382515541       -0.531784871807
 Iteration  2        0.043944889011       -0.543790888761
 Iteration  3        0.013410468927       -0.545178249894
 Iteration  4        0.003112694665       -0.545133532886
 Iteration  5        0.000874726865       -0.545173103972
 Iteration  6        0.000157287347       -0.545171301617
 Iteration  7        0.000032608067       -0.545171562195
 
 CCSD iteration has converged in  7 steps.
      486.74 MB memory was utilized by CCSD
 
 T1 diagnostic:      7.101E-03            D1 diagnostic:      2.125E-02
 
 CCSD correlation energy [au]:          -0.073231321949
 
 CPU time [min]: 14637.491                   Wall time [min]:   240.768
 
 Calculation of (T) correction...
 
 Laplace threshold, nquadmin:  1.00E-01   2
 Number of quadrature points:    2
 
      448.91 MB memory is utilized for (T)

 0%       25%       50%       75%       100%
 |---------|---------|---------|---------| 
 
 (T) correction [au]:                   -0.002698246592
 CCSD(T) correlation energy [au]:       -0.075929568541
 
 CPU time [min]: 14639.945                   Wall time [min]:   240.804
 
 MO:    73
 Number of atoms in domain:      25
 Number of atomic orbitals:    1874
 Number of atoms for local DF:   25
 Number of fitting functions:  7379 (100.00%)
 Number of occupied orbitals:    33
 Number of virtual  orbitals:  1749
 Number of Cholesky vectors:      7
 MP2 energy in ED [au]:          -0.075716831470
 Number of occupied LNOs:        21  (63.64%)
 Number of virtual  LNOs:        82   (4.69%)
 tol*100>norm                   598  9.605720644528061E-003
 tol*100>norm                   678  9.607991271855645E-003
 tol*100>norm                   918  9.582819367406386E-003
 tol*100>norm                  1238  9.605373332764029E-003
 tol*100>norm                  1318  9.607912416151587E-003
 tol*100>norm                  1638  8.423614608078209E-003
 tol*100>norm                  1718  8.423791122591015E-003
 avg/min projected vLNO norm    1.0000E+00    1.0000E+00
 Number of Cholesky vectors:      6
 MP2 energy in LIS [au]:         -0.073763884110
 Correction for frozen LNO [au]: -0.001952947359     (2.579%)
 Number of NAFs:                304   (4.12%)
 CPU time [min]: 14878.347                   Wall time [min]:   244.793
 

 Direct DF-CCSD(T) calculation
 
 Convergence criterion:  1.0E-05
 
 Number of occupied/virtual/auxiliary orbitals:    21    82   304
    366.25 MB is the minimal memory requirement for (T)
    322.30 MB is the minimal memory requirement for CCSD
 
 MP2 correlation energy [au]:        -0.520216311206
 
 LMP2 domain correlation energy contribution [au]:       -0.073764100908
 
 CPU time [min]: 14878.442                   Wall time [min]:   244.795
 
 
 Starting CCSD iterations...
 
                     Residual norm       Correlation Energy
 Iteration  1        0.192419549477       -0.531979891602
 Iteration  2        0.043952942530       -0.543986826812
 Iteration  3        0.013412514351       -0.545374865845
 Iteration  4        0.003113287501       -0.545330386292
 Iteration  5        0.000874828062       -0.545369956304
 Iteration  6        0.000157317387       -0.545368139998
 Iteration  7        0.000032612519       -0.545368402054
 
 CCSD iteration has converged in  7 steps.
      486.74 MB memory was utilized by CCSD
 
 T1 diagnostic:      7.100E-03            D1 diagnostic:      2.124E-02
 
 CCSD correlation energy [au]:          -0.073231464880
 
 CPU time [min]: 14880.485                   Wall time [min]:   244.825
 
 Calculation of (T) correction...
 
 Laplace threshold, nquadmin:  1.00E-01   2
 Number of quadrature points:    2
 
      448.91 MB memory is utilized for (T)

 0%       25%       50%       75%       100%
 |---------|---------|---------|---------| 
 
 (T) correction [au]:                   -0.002698266093
 CCSD(T) correlation energy [au]:       -0.075929730974
 
 CPU time [min]: 14883.117                   Wall time [min]:   244.862
 
 MO:    74
 Number of atoms in domain:      25
 Number of atomic orbitals:    1874
 Number of atoms for local DF:   25
 Number of fitting functions:  7379 (100.00%)
 Number of occupied orbitals:    33
 Number of virtual  orbitals:  1749
 Number of Cholesky vectors:      7
 MP2 energy in ED [au]:          -0.075713798083
 Number of occupied LNOs:        21  (63.64%)
 Number of virtual  LNOs:        82   (4.69%)
 tol*100>norm                   918  9.600173971232820E-003
 tol*100>norm                   998  9.605680009650956E-003
 tol*100>norm                  1078  9.608278726548691E-003
 tol*100>norm                  1238  9.607891897021974E-003
 tol*100>norm                  1318  9.588372333839730E-003
 tol*100>norm                  1718  8.420879722204679E-003
 tol*100>norm                  1798  8.423840530776067E-003
 avg/min projected vLNO norm    1.0000E+00    1.0000E+00
 Number of Cholesky vectors:      6
 MP2 energy in LIS [au]:         -0.073763037612
 Correction for frozen LNO [au]: -0.001950760471     (2.576%)
 Number of NAFs:                304   (4.12%)
 CPU time [min]: 15121.631                   Wall time [min]:   248.853
 

 Direct DF-CCSD(T) calculation
 
 Convergence criterion:  1.0E-05
 
 Number of occupied/virtual/auxiliary orbitals:    21    82   304
    366.25 MB is the minimal memory requirement for (T)
    322.30 MB is the minimal memory requirement for CCSD
 
 MP2 correlation energy [au]:        -0.519945932431
 
 LMP2 domain correlation energy contribution [au]:       -0.073763246715
 
 CPU time [min]: 15121.723                   Wall time [min]:   248.854
 
 
 Starting CCSD iterations...
 
                     Residual norm       Correlation Energy
 Iteration  1        0.192381046335       -0.531698113063
 Iteration  2        0.043944403860       -0.543698756274
 Iteration  3        0.013409707068       -0.545087131358
 Iteration  4        0.003113141609       -0.545042420598
 Iteration  5        0.000875063618       -0.545081998144
 Iteration  6        0.000157251290       -0.545080197300
 Iteration  7        0.000032594292       -0.545080458504
 
 CCSD iteration has converged in  7 steps.
      486.74 MB memory was utilized by CCSD
 
 T1 diagnostic:      7.098E-03            D1 diagnostic:      2.124E-02
 
 CCSD correlation energy [au]:          -0.073230756800
 
 CPU time [min]: 15123.763                   Wall time [min]:   248.884
 
 Calculation of (T) correction...
 
 Laplace threshold, nquadmin:  1.00E-01   2
 Number of quadrature points:    2
 
      448.91 MB memory is utilized for (T)

 0%       25%       50%       75%       100%
 |---------|---------|---------|---------| 
 
 (T) correction [au]:                   -0.002698182272
 CCSD(T) correlation energy [au]:       -0.075928939072
 
 CPU time [min]: 15126.459                   Wall time [min]:   248.922
 
 MO:    75
 Number of atoms in domain:      25
 Number of atomic orbitals:    1874
 Number of atoms for local DF:   25
 Number of fitting functions:  7379 (100.00%)
 Number of occupied orbitals:    33
 Number of virtual  orbitals:  1749
 Number of Cholesky vectors:      7
 MP2 energy in ED [au]:          -0.075712859688
 Number of occupied LNOs:        21  (63.64%)
 Number of virtual  LNOs:        82   (4.69%)
 tol*100>norm                   758  9.608385212308154E-003
 tol*100>norm                   998  9.607816387733996E-003
 tol*100>norm                  1078  9.588689825913136E-003
 tol*100>norm                  1158  9.605417515218963E-003
 tol*100>norm                  1318  9.605332663730412E-003
 tol*100>norm                  1478  8.423504548140609E-003
 tol*100>norm                  1798  8.421281800816362E-003
 avg/min projected vLNO norm    1.0000E+00    1.0000E+00
 Number of Cholesky vectors:      6
 MP2 energy in LIS [au]:         -0.073764226753
 Correction for frozen LNO [au]: -0.001948632935     (2.574%)
 Number of NAFs:                304   (4.12%)
 CPU time [min]: 15364.668                   Wall time [min]:   252.907
 

 Direct DF-CCSD(T) calculation
 
 Convergence criterion:  1.0E-05
 
 Number of occupied/virtual/auxiliary orbitals:    21    82   304
    366.25 MB is the minimal memory requirement for (T)
    322.30 MB is the minimal memory requirement for CCSD
 
 MP2 correlation energy [au]:        -0.520198109947
 
 LMP2 domain correlation energy contribution [au]:       -0.073764425544
 
 CPU time [min]: 15364.764                   Wall time [min]:   252.909
 
 
 Starting CCSD iterations...
 
                     Residual norm       Correlation Energy
 Iteration  1        0.192219120083       -0.531964763439
 Iteration  2        0.043868576134       -0.543975880049
 Iteration  3        0.013392323485       -0.545358380572
 Iteration  4        0.003108682143       -0.545313917389
 Iteration  5        0.000872793383       -0.545353494378
 Iteration  6        0.000157102263       -0.545351651266
 Iteration  7        0.000032497101       -0.545351916095
 
 CCSD iteration has converged in  7 steps.
      486.74 MB memory was utilized by CCSD
 
 T1 diagnostic:      7.097E-03            D1 diagnostic:      2.122E-02
 
 CCSD correlation energy [au]:          -0.073232535091
 
 CPU time [min]: 15366.830                   Wall time [min]:   252.939
 
 Calculation of (T) correction...
 
 Laplace threshold, nquadmin:  1.00E-01   2
 Number of quadrature points:    2
 
      448.91 MB memory is utilized for (T)

 0%       25%       50%       75%       100%
 |---------|---------|---------|---------| 
 
 (T) correction [au]:                   -0.002698274452
 CCSD(T) correlation energy [au]:       -0.075930809543
 
 CPU time [min]: 15369.424                   Wall time [min]:   252.976
 
 MO:    76
 Number of atoms in domain:      25
 Number of atomic orbitals:    1874
 Number of atoms for local DF:   25
 Number of fitting functions:  7379 (100.00%)
 Number of occupied orbitals:    33
 Number of virtual  orbitals:  1749
 Number of Cholesky vectors:      7
 MP2 energy in ED [au]:          -0.075714396631
 Number of occupied LNOs:        21  (63.64%)
 Number of virtual  LNOs:        82   (4.69%)
 tol*100>norm                   438  9.588482573113130E-003
 tol*100>norm                   518  9.608066374825303E-003
 tol*100>norm                   678  9.608064055936210E-003
 tol*100>norm                   758  9.606026499264928E-003
 tol*100>norm                   998  9.605450948159582E-003
 tol*100>norm                  1398  8.424936410305631E-003
 tol*100>norm                  1478  8.420860782469036E-003
 avg/min projected vLNO norm    1.0000E+00    1.0000E+00
 Number of Cholesky vectors:      6
 MP2 energy in LIS [au]:         -0.073763558084
 Correction for frozen LNO [au]: -0.001950838547     (2.577%)
 Number of NAFs:                304   (4.12%)
 CPU time [min]: 15608.675                   Wall time [min]:   256.976
 

 Direct DF-CCSD(T) calculation
 
 Convergence criterion:  1.0E-05
 
 Number of occupied/virtual/auxiliary orbitals:    21    82   304
    366.25 MB is the minimal memory requirement for (T)
    322.30 MB is the minimal memory requirement for CCSD
 
 MP2 correlation energy [au]:        -0.520008157694
 
 LMP2 domain correlation energy contribution [au]:       -0.073763771980
 
 CPU time [min]: 15608.768                   Wall time [min]:   256.977
 
 
 Starting CCSD iterations...
 
                     Residual norm       Correlation Energy
 Iteration  1        0.192414924888       -0.531782690006
 Iteration  2        0.043948410049       -0.543787168936
 Iteration  3        0.013411966160       -0.545175227470
 Iteration  4        0.003113066491       -0.545130508470
 Iteration  5        0.000874896237       -0.545170140776
 Iteration  6        0.000157236045       -0.545168333859
 Iteration  7        0.000032570230       -0.545168592957
 
 CCSD iteration has converged in  7 steps.
      486.74 MB memory was utilized by CCSD
 
 T1 diagnostic:      7.094E-03            D1 diagnostic:      2.122E-02
 
 CCSD correlation energy [au]:          -0.073231172804
 
 CPU time [min]: 15610.784                   Wall time [min]:   257.007
 
 Calculation of (T) correction...
 
 Laplace threshold, nquadmin:  1.00E-01   2
 Number of quadrature points:    2
 
      448.91 MB memory is utilized for (T)

 0%       25%       50%       75%       100%
 |---------|---------|---------|---------| 
 
 (T) correction [au]:                   -0.002698237917
 CCSD(T) correlation energy [au]:       -0.075929410721
 
 CPU time [min]: 15613.185                   Wall time [min]:   257.041
 
 **********************************************************************
 Dimensions of the extended domains:    Minimum / Average / Maximum
 
 Number of atoms in domain:                  24      24.7        25
 Number of atomic orbitals:                1794    1852.9      1874
 Number of fitting functions:              5623    6916.9      7379
 Number of occupied localized MOs:           20      30.0        56
 Number of PAOs:                           1376    1650.8      1749
 Number of occupied LNOs:                    11      17.1        28
 Number of virtual  LNOs:                    61      72.6        94
 Number of NAFs:                            210     261.9       357
 
 **********************************************************************
 Distant (and weak) pair contributions, corrections
 
 Sum of pair energies [au]:                    -0.009407447506    (0.165%)
 Sum of energy corrections [au]:               -0.145526147891    (2.547%)
 Pair energies + LNO corrections [au]:         -0.154933595397
 Sum of LMP2 contributions [au]:               -5.713310808556
 
 **********************************************************************
  Time of manipulations in the EDs:      max CPU/Wall [s]  all CPU/Wall [min]
 
 PD construction & multipole pair E    7092.72   103.05   118.21     1.72
 Construct MO basis of the ED           100.01     1.33   101.53     1.35
 (mu,nu|P) evaluation & trf 2 (ai|P)   6470.35   103.56  5215.63    71.85
 Evaluate MP2 energy of the ED          637.02     8.42   395.25     5.22
 Transformations to the LNO basis       246.78     3.29   184.52     2.46
 Build W_PQ (Jai or Jpi part)            21.38     0.48    23.37     0.43
 Evaluate MP2 energy of the LIS           4.33     0.06     1.83     0.02
 (mu,nu|P) evaluation & trf 2 J(abQ)   9624.60   188.55  9188.09   168.34
 Total of the above for all EDs       17104.47   305.69 15110.21   249.67
 
 **********************************************************************
 Maximum memory requirement [MB]:       
 
 PD construction & multipole pair E        411.0
 AO integral evaluation in the EDs       13698.4
 (mu,nu|P) evaluation & trf 2 (aI|P)     30534.8
 Evaluate MP2 energy in the EDs          13376.7
 Transformation to the LNO basis          1855.4
 (mu,nu|P) to Jab transformation         15050.8
 Evaluate MP2 energy in the LIS           2599.9
 Minimum requirement for LIS CCSD          392.6
 Actually allocated  for LIS CCSD          675.9
 Minimum requirement for LIS (T)           463.2
 Actually allocated  for LIS (T)           649.2
 
 ======================================================================
 ======================================================================
 
 
 
 ======================================================================
 ======================================================================
 
 Final local CC results:
 
 Minimum number of correlated electrons:        22       ( 14.5%)
 Maximum number of correlated electrons:        56       ( 36.8%)
 Average number of correlated electrons:        34.2     ( 22.5%)
 Minimum number of correlated orbitals:         72       (  3.9%)
 Maximum number of correlated orbitals:        122       (  6.7%)
 Average number of correlated orbitals:         89.7     (  4.9%)
 
 CPU time for integral calculations [min]:                 75.520
 Wall time for integral calculations [min]:                32.818
 
 CPU time for SCF calculation [min]:                      848.667
 Wall time for SCF calculation [min]:                      11.407
 
 CPU time for orbital localization [min]:                   0.707
 Wall time for orbital localization [min]:                  0.064
 
 CPU time for integral transformations [min]:           15365.697
 Wall time for integral transformations [min]:            253.452
 
 Reference energy [au]:                                -12282.323950587495
 
 LMP2 correlation energy [au]:                             -5.713310808556
 Total LMP2 energy [au]:                               -12288.037261396052
 
 Total MP2 correction for dropped NAFs [au]:                0.000027217365
 Total MP2 correction [au]:                                -0.154906378032
 
 CPU time for CCSD calculations [min]:                    117.222
 Total CPU time for CCSD [min]:                         16407.813
 Wall time for CCSD calculations [min]:                     1.714
 Total wall time for CCSD [min]:                          299.455
 
 CCSD correlation energy [au]:                             -5.520635684147
 Total CCSD energy [au]:                               -12287.844586271643
 CCSD correlation energy + 0.5 MP2 corrections [au]:       -5.598088873163
 Total LNO-CCSD energy with MP2 corrections [au]:      -12287.922039460658
 
 CPU time for (T) corrections [min]:                      130.273
 Total CPU time for CCSD(T) [min]:                      16538.086
 Wall time for (T) corrections [min]:                       1.875
 Total wall time for CCSD(T) [min]:                       301.330
 
 Total (T) correlation energy contribution [au]:           -0.198062144180
 Total (T) correlation energy+0.5 MP2 correction [au]:     -0.275515333196
 CCSD(T) correlation energy [au]:                          -5.718697828328
 Total CCSD(T) energy [au]:                            -12288.042648415823
 CCSD(T) correlation energy + MP2 corrections [au]:        -5.873604206359
 Total LNO-CCSD(T) energy with MP2 corrections [au]:   -12288.197554793855
 
 ======================================================================
 ======================================================================
 
 ************************ 2021-11-09 04:04:22 *************************
                      Normal termination of mrcc.
 **********************************************************************
