 **********************************************************************
                          MRCC program system
 **********************************************************************
 
                              Written by
 Mihaly Kallay, Peter R. Nagy, David Mester, Zoltan Rolik, Gyula Samu,
   Jozsef Csontos, Jozsef Csoka, P. Bernat Szabo, Laszlo Gyevi-Nagy,
    Bence Hegely, Istvan Ladjanszki, Lorant Szegedy, Bence Ladoczki,
       Klara Petrov, Mate Farkas, Pal D. Mezei, and Adam Ganyecz
 
        Department of Physical Chemistry and Materials Science
            Budapest University of Technology and Economics
                  Budapest P.O.Box 91, H-1521 Hungary
 
                              www.mrcc.hu
 
                    Release date: February 22, 2020

 ************************ 2022-01-06 14:59:38 *************************
 Executing minp...

 Reading input from MINP...
 
 Input file:
 
calc=LB2PLYP
verbosity=3
mem=170GB
symm=off
unit=angs
scfiguess=off
scfmaxit=1000
scfalg=locfit1
scftol=5

lcorthr=normal
charge=-82
core=269

basis=special
def2-QZVPP
def2-QZVPP
def2-QZVPP
def2-QZVPP
def2-QZVPP
def2-QZVPP
def2-QZVPP
def2-QZVPP
def2-QZVPP
def2-QZVPP
def2-QZVPP
def2-QZVPP
def2-QZVPP
def2-QZVPP
def2-QZVPP
def2-QZVPP
def2-QZVPP
def2-QZVPP
def2-QZVPP
def2-QZVPP
def2-QZVPP
def2-QZVPP
def2-QZVPP
def2-QZVPP
def2-QZVPP
def2-QZVPP
def2-QZVPP
def2-QZVPP
def2-QZVPP
def2-QZVPP
def2-QZVPP
def2-QZVPP
def2-QZVPP
def2-QZVPP
def2-QZVPP
def2-QZVPP
def2-QZVPP
def2-QZVPP
def2-QZVPP
def2-QZVPP
def2-QZVPP
def2-QZVPP
def2-QZVPP
def2-QZVPP
def2-QZVPP
def2-QZVPP
def2-QZVPP
def2-QZVPP
def2-QZVPP
def2-QZVPP
def2-QZVPP
def2-QZVPP
def2-QZVPP
def2-QZVPP
def2-QZVPP
def2-QZVPP
def2-QZVPP
def2-QZVPP
def2-QZVPP
def2-QZVPP
def2-QZVPP
def2-QZVPP
def2-QZVPP
def2-QZVPP
def2-QZVPP
def2-QZVPP
def2-QZVPP
def2-QZVPP
def2-QZVPP
def2-QZVPP
def2-QZVPP
def2-QZVPP
def2-QZVPP
def2-QZVPP
def2-QZVPP
def2-QZVPP
def2-QZVPP
def2-QZVPP
def2-QZVPP
def2-QZVPP
def2-QZVPP
def2-QZVPP
def2-QZVPP
def2-QZVPP
def2-QZVPP
def2-QZVPP
def2-QZVPP
def2-QZVPP
def2-QZVPP
def2-QZVPP
def2-QZVPP
def2-QZVPP
def2-QZVPP
def2-QZVPP
def2-QZVPP
def2-QZVPP
def2-QZVPP
def2-QZVPP
def2-QZVPP
def2-QZVPP
def2-QZVPP
def2-QZVPP
def2-QZVPP
def2-QZVPP
def2-QZVPP
def2-QZVPP
def2-QZVPP
def2-QZVPP
def2-QZVPP
def2-QZVPP
def2-QZVPP
def2-QZVPP
def2-QZVPP
def2-QZVPP
def2-QZVPP
def2-QZVPP
def2-QZVPP
nothing
nothing
nothing
nothing
nothing
nothing
nothing
nothing
nothing
nothing
nothing
nothing
nothing
nothing
nothing
nothing
nothing
nothing
nothing
nothing
nothing
nothing
nothing
nothing
nothing
nothing
nothing
nothing
nothing
nothing
nothing
nothing
nothing
nothing
nothing
nothing
nothing
nothing
nothing
nothing
nothing
nothing
nothing
nothing
nothing
nothing
nothing
nothing
nothing
nothing
nothing
nothing
nothing
nothing
nothing
nothing
nothing
nothing
nothing
nothing
nothing
nothing
nothing
nothing
nothing
nothing
nothing
nothing
nothing
nothing
nothing
nothing
nothing
nothing
nothing
nothing
nothing
nothing
nothing
nothing
nothing
nothing
nothing
nothing
nothing
nothing
nothing
nothing
nothing
nothing
nothing
nothing
nothing
nothing
nothing
nothing
nothing
nothing
nothing
nothing
nothing
nothing
nothing
nothing
nothing
nothing
nothing
nothing
nothing
nothing
nothing
nothing
nothing
nothing
nothing
nothing
nothing
nothing
nothing
nothing
nothing
nothing
nothing
nothing
nothing
nothing
nothing
nothing
nothing
nothing
nothing
nothing
nothing
nothing
nothing
nothing
nothing
nothing
nothing
nothing
nothing
nothing
nothing
nothing
nothing
nothing
nothing
nothing
nothing
nothing
nothing
nothing
nothing
nothing
nothing
nothing
nothing
nothing
nothing
nothing
nothing
nothing
nothing
nothing
nothing
nothing
nothing
nothing
nothing
nothing
nothing
nothing
nothing
nothing
nothing
nothing
nothing
nothing
nothing
nothing
nothing
nothing
nothing
nothing
nothing
nothing
nothing
nothing
nothing
nothing
nothing
nothing
nothing
nothing
nothing
nothing
nothing
nothing
nothing
nothing
nothing
nothing
nothing
nothing
nothing
nothing
nothing
nothing
nothing
nothing
nothing
nothing
nothing
nothing
nothing
nothing
nothing
nothing
nothing
nothing
nothing
nothing
nothing
nothing
nothing
nothing
nothing
nothing
nothing
nothing
nothing
nothing
nothing
nothing
nothing
nothing
nothing
nothing
nothing
nothing
nothing
nothing
nothing
nothing
nothing
nothing
nothing
nothing
nothing
nothing
nothing
nothing
nothing
nothing
nothing
nothing
nothing
nothing
nothing
nothing
nothing
nothing
nothing
nothing
nothing
nothing
nothing
nothing
nothing
nothing
nothing
nothing
nothing
nothing
nothing
nothing
nothing
nothing
nothing
nothing
nothing
nothing
nothing
nothing
nothing
nothing
nothing
nothing
nothing
nothing
nothing
nothing
nothing
nothing
nothing
nothing
nothing
nothing
nothing
nothing
nothing
nothing
nothing
nothing
nothing
nothing
nothing
nothing
nothing
nothing
nothing
nothing
nothing
nothing
nothing
nothing
nothing
nothing
nothing
nothing
nothing
nothing
nothing
nothing
nothing
nothing
nothing
nothing
nothing
nothing
nothing
nothing
nothing
nothing
nothing
nothing
nothing
nothing
nothing
nothing
nothing
nothing
nothing
nothing
nothing
nothing
nothing
nothing
nothing
nothing
nothing
nothing
nothing
nothing
nothing
nothing
nothing
nothing
nothing
nothing
nothing
nothing
nothing
nothing
nothing
nothing
nothing
nothing
nothing
nothing
nothing
nothing
nothing
nothing
nothing
nothing
nothing
nothing
nothing
nothing
nothing
nothing
nothing
nothing
nothing
nothing
nothing
nothing
nothing
nothing
nothing
nothing
nothing
nothing
nothing
nothing
nothing
nothing
nothing
nothing
nothing
nothing
nothing
nothing
nothing
nothing
nothing
nothing
nothing
nothing
nothing
nothing
nothing
nothing
nothing
nothing
nothing
nothing
nothing
nothing
nothing
nothing
nothing
nothing
nothing
nothing
nothing
nothing
nothing
nothing
nothing
nothing
nothing
nothing
nothing
nothing
nothing
nothing
nothing
nothing
nothing
nothing
nothing
nothing
nothing
nothing
nothing
nothing
nothing
nothing
nothing
nothing
nothing
nothing
nothing
nothing
nothing
nothing
nothing
nothing
nothing
nothing
nothing
nothing
nothing
nothing
nothing
nothing
nothing
nothing
nothing
nothing
nothing
nothing
nothing
nothing
nothing
nothing
nothing
nothing
nothing
nothing
nothing
nothing
nothing
nothing
nothing
nothing
nothing
nothing
nothing
nothing
nothing
nothing
nothing
nothing
nothing
nothing
nothing
nothing

basis_sm=special
STO-3G
STO-3G
STO-3G
STO-3G
STO-3G
STO-3G
STO-3G
STO-3G
STO-3G
STO-3G
STO-3G
STO-3G
STO-3G
STO-3G
STO-3G
STO-3G
STO-3G
STO-3G
STO-3G
STO-3G
STO-3G
STO-3G
STO-3G
STO-3G
STO-3G
STO-3G
STO-3G
STO-3G
STO-3G
STO-3G
STO-3G
STO-3G
STO-3G
STO-3G
STO-3G
STO-3G
STO-3G
STO-3G
STO-3G
STO-3G
STO-3G
STO-3G
STO-3G
STO-3G
STO-3G
STO-3G
STO-3G
STO-3G
STO-3G
STO-3G
STO-3G
STO-3G
STO-3G
STO-3G
STO-3G
STO-3G
STO-3G
STO-3G
STO-3G
STO-3G
STO-3G
STO-3G
STO-3G
STO-3G
STO-3G
STO-3G
STO-3G
STO-3G
STO-3G
STO-3G
STO-3G
STO-3G
STO-3G
STO-3G
STO-3G
STO-3G
STO-3G
STO-3G
STO-3G
STO-3G
STO-3G
STO-3G
STO-3G
STO-3G
STO-3G
STO-3G
STO-3G
STO-3G
STO-3G
STO-3G
STO-3G
STO-3G
STO-3G
STO-3G
STO-3G
STO-3G
STO-3G
STO-3G
STO-3G
STO-3G
STO-3G
STO-3G
STO-3G
STO-3G
STO-3G
STO-3G
STO-3G
STO-3G
STO-3G
STO-3G
STO-3G
STO-3G
STO-3G
STO-3G
STO-3G
STO-3G
STO-3G
nothing
nothing
nothing
nothing
nothing
nothing
nothing
nothing
nothing
nothing
nothing
nothing
nothing
nothing
nothing
nothing
nothing
nothing
nothing
nothing
nothing
nothing
nothing
nothing
nothing
nothing
nothing
nothing
nothing
nothing
nothing
nothing
nothing
nothing
nothing
nothing
nothing
nothing
nothing
nothing
nothing
nothing
nothing
nothing
nothing
nothing
nothing
nothing
nothing
nothing
nothing
nothing
nothing
nothing
nothing
nothing
nothing
nothing
nothing
nothing
nothing
nothing
nothing
nothing
nothing
nothing
nothing
nothing
nothing
nothing
nothing
nothing
nothing
nothing
nothing
nothing
nothing
nothing
nothing
nothing
nothing
nothing
nothing
nothing
nothing
nothing
nothing
nothing
nothing
nothing
nothing
nothing
nothing
nothing
nothing
nothing
nothing
nothing
nothing
nothing
nothing
nothing
nothing
nothing
nothing
nothing
nothing
nothing
nothing
nothing
nothing
nothing
nothing
nothing
nothing
nothing
nothing
nothing
nothing
nothing
nothing
nothing
nothing
nothing
nothing
nothing
nothing
nothing
nothing
nothing
nothing
nothing
nothing
nothing
nothing
nothing
nothing
nothing
nothing
nothing
nothing
nothing
nothing
nothing
nothing
nothing
nothing
nothing
nothing
nothing
nothing
nothing
nothing
nothing
nothing
nothing
nothing
nothing
nothing
nothing
nothing
nothing
nothing
nothing
nothing
nothing
nothing
nothing
nothing
nothing
nothing
nothing
nothing
nothing
nothing
nothing
nothing
nothing
nothing
nothing
nothing
nothing
nothing
nothing
nothing
nothing
nothing
nothing
nothing
nothing
nothing
nothing
nothing
nothing
nothing
nothing
nothing
nothing
nothing
nothing
nothing
nothing
nothing
nothing
nothing
nothing
nothing
nothing
nothing
nothing
nothing
nothing
nothing
nothing
nothing
nothing
nothing
nothing
nothing
nothing
nothing
nothing
nothing
nothing
nothing
nothing
nothing
nothing
nothing
nothing
nothing
nothing
nothing
nothing
nothing
nothing
nothing
nothing
nothing
nothing
nothing
nothing
nothing
nothing
nothing
nothing
nothing
nothing
nothing
nothing
nothing
nothing
nothing
nothing
nothing
nothing
nothing
nothing
nothing
nothing
nothing
nothing
nothing
nothing
nothing
nothing
nothing
nothing
nothing
nothing
nothing
nothing
nothing
nothing
nothing
nothing
nothing
nothing
nothing
nothing
nothing
nothing
nothing
nothing
nothing
nothing
nothing
nothing
nothing
nothing
nothing
nothing
nothing
nothing
nothing
nothing
nothing
nothing
nothing
nothing
nothing
nothing
nothing
nothing
nothing
nothing
nothing
nothing
nothing
nothing
nothing
nothing
nothing
nothing
nothing
nothing
nothing
nothing
nothing
nothing
nothing
nothing
nothing
nothing
nothing
nothing
nothing
nothing
nothing
nothing
nothing
nothing
nothing
nothing
nothing
nothing
nothing
nothing
nothing
nothing
nothing
nothing
nothing
nothing
nothing
nothing
nothing
nothing
nothing
nothing
nothing
nothing
nothing
nothing
nothing
nothing
nothing
nothing
nothing
nothing
nothing
nothing
nothing
nothing
nothing
nothing
nothing
nothing
nothing
nothing
nothing
nothing
nothing
nothing
nothing
nothing
nothing
nothing
nothing
nothing
nothing
nothing
nothing
nothing
nothing
nothing
nothing
nothing
nothing
nothing
nothing
nothing
nothing
nothing
nothing
nothing
nothing
nothing
nothing
nothing
nothing
nothing
nothing
nothing
nothing
nothing
nothing
nothing
nothing
nothing
nothing
nothing
nothing
nothing
nothing
nothing
nothing
nothing
nothing
nothing
nothing
nothing
nothing
nothing
nothing
nothing
nothing
nothing
nothing
nothing
nothing
nothing
nothing
nothing
nothing
nothing
nothing
nothing
nothing
nothing
nothing
nothing
nothing
nothing
nothing
nothing
nothing
nothing
nothing
nothing
nothing
nothing
nothing
nothing
nothing
nothing
nothing
nothing
nothing
nothing
nothing
nothing
nothing
nothing
nothing
nothing
nothing
nothing
nothing
nothing
nothing
nothing
nothing
nothing
nothing
nothing
nothing
nothing
nothing
nothing
nothing
nothing
nothing
nothing
nothing
nothing
nothing
nothing
nothing
nothing
nothing
nothing
nothing
nothing
nothing
nothing
nothing
nothing
nothing
nothing

dfbasis_scf=special
def2-QZVPP-RI-JK
def2-QZVPP-RI-JK
def2-QZVPP-RI-JK
def2-QZVPP-RI-JK
def2-QZVPP-RI-JK
def2-QZVPP-RI-JK
def2-QZVPP-RI-JK
def2-QZVPP-RI-JK
def2-QZVPP-RI-JK
def2-QZVPP-RI-JK
def2-QZVPP-RI-JK
def2-QZVPP-RI-JK
def2-QZVPP-RI-JK
def2-QZVPP-RI-JK
def2-QZVPP-RI-JK
def2-QZVPP-RI-JK
def2-QZVPP-RI-JK
def2-QZVPP-RI-JK
def2-QZVPP-RI-JK
def2-QZVPP-RI-JK
def2-QZVPP-RI-JK
def2-QZVPP-RI-JK
def2-QZVPP-RI-JK
def2-QZVPP-RI-JK
def2-QZVPP-RI-JK
def2-QZVPP-RI-JK
def2-QZVPP-RI-JK
def2-QZVPP-RI-JK
def2-QZVPP-RI-JK
def2-QZVPP-RI-JK
def2-QZVPP-RI-JK
def2-QZVPP-RI-JK
def2-QZVPP-RI-JK
def2-QZVPP-RI-JK
def2-QZVPP-RI-JK
def2-QZVPP-RI-JK
def2-QZVPP-RI-JK
def2-QZVPP-RI-JK
def2-QZVPP-RI-JK
def2-QZVPP-RI-JK
def2-QZVPP-RI-JK
def2-QZVPP-RI-JK
def2-QZVPP-RI-JK
def2-QZVPP-RI-JK
def2-QZVPP-RI-JK
def2-QZVPP-RI-JK
def2-QZVPP-RI-JK
def2-QZVPP-RI-JK
def2-QZVPP-RI-JK
def2-QZVPP-RI-JK
def2-QZVPP-RI-JK
def2-QZVPP-RI-JK
def2-QZVPP-RI-JK
def2-QZVPP-RI-JK
def2-QZVPP-RI-JK
def2-QZVPP-RI-JK
def2-QZVPP-RI-JK
def2-QZVPP-RI-JK
def2-QZVPP-RI-JK
def2-QZVPP-RI-JK
def2-QZVPP-RI-JK
def2-QZVPP-RI-JK
def2-QZVPP-RI-JK
def2-QZVPP-RI-JK
def2-QZVPP-RI-JK
def2-QZVPP-RI-JK
def2-QZVPP-RI-JK
def2-QZVPP-RI-JK
def2-QZVPP-RI-JK
def2-QZVPP-RI-JK
def2-QZVPP-RI-JK
def2-QZVPP-RI-JK
def2-QZVPP-RI-JK
def2-QZVPP-RI-JK
def2-QZVPP-RI-JK
def2-QZVPP-RI-JK
def2-QZVPP-RI-JK
def2-QZVPP-RI-JK
def2-QZVPP-RI-JK
def2-QZVPP-RI-JK
def2-QZVPP-RI-JK
def2-QZVPP-RI-JK
def2-QZVPP-RI-JK
def2-QZVPP-RI-JK
def2-QZVPP-RI-JK
def2-QZVPP-RI-JK
def2-QZVPP-RI-JK
def2-QZVPP-RI-JK
def2-QZVPP-RI-JK
def2-QZVPP-RI-JK
def2-QZVPP-RI-JK
def2-QZVPP-RI-JK
def2-QZVPP-RI-JK
def2-QZVPP-RI-JK
def2-QZVPP-RI-JK
def2-QZVPP-RI-JK
def2-QZVPP-RI-JK
def2-QZVPP-RI-JK
def2-QZVPP-RI-JK
def2-QZVPP-RI-JK
def2-QZVPP-RI-JK
def2-QZVPP-RI-JK
def2-QZVPP-RI-JK
def2-QZVPP-RI-JK
def2-QZVPP-RI-JK
def2-QZVPP-RI-JK
def2-QZVPP-RI-JK
def2-QZVPP-RI-JK
def2-QZVPP-RI-JK
def2-QZVPP-RI-JK
def2-QZVPP-RI-JK
def2-QZVPP-RI-JK
def2-QZVPP-RI-JK
def2-QZVPP-RI-JK
def2-QZVPP-RI-JK
def2-QZVPP-RI-JK
def2-QZVPP-RI-JK
nothing
nothing
nothing
nothing
nothing
nothing
nothing
nothing
nothing
nothing
nothing
nothing
nothing
nothing
nothing
nothing
nothing
nothing
nothing
nothing
nothing
nothing
nothing
nothing
nothing
nothing
nothing
nothing
nothing
nothing
nothing
nothing
nothing
nothing
nothing
nothing
nothing
nothing
nothing
nothing
nothing
nothing
nothing
nothing
nothing
nothing
nothing
nothing
nothing
nothing
nothing
nothing
nothing
nothing
nothing
nothing
nothing
nothing
nothing
nothing
nothing
nothing
nothing
nothing
nothing
nothing
nothing
nothing
nothing
nothing
nothing
nothing
nothing
nothing
nothing
nothing
nothing
nothing
nothing
nothing
nothing
nothing
nothing
nothing
nothing
nothing
nothing
nothing
nothing
nothing
nothing
nothing
nothing
nothing
nothing
nothing
nothing
nothing
nothing
nothing
nothing
nothing
nothing
nothing
nothing
nothing
nothing
nothing
nothing
nothing
nothing
nothing
nothing
nothing
nothing
nothing
nothing
nothing
nothing
nothing
nothing
nothing
nothing
nothing
nothing
nothing
nothing
nothing
nothing
nothing
nothing
nothing
nothing
nothing
nothing
nothing
nothing
nothing
nothing
nothing
nothing
nothing
nothing
nothing
nothing
nothing
nothing
nothing
nothing
nothing
nothing
nothing
nothing
nothing
nothing
nothing
nothing
nothing
nothing
nothing
nothing
nothing
nothing
nothing
nothing
nothing
nothing
nothing
nothing
nothing
nothing
nothing
nothing
nothing
nothing
nothing
nothing
nothing
nothing
nothing
nothing
nothing
nothing
nothing
nothing
nothing
nothing
nothing
nothing
nothing
nothing
nothing
nothing
nothing
nothing
nothing
nothing
nothing
nothing
nothing
nothing
nothing
nothing
nothing
nothing
nothing
nothing
nothing
nothing
nothing
nothing
nothing
nothing
nothing
nothing
nothing
nothing
nothing
nothing
nothing
nothing
nothing
nothing
nothing
nothing
nothing
nothing
nothing
nothing
nothing
nothing
nothing
nothing
nothing
nothing
nothing
nothing
nothing
nothing
nothing
nothing
nothing
nothing
nothing
nothing
nothing
nothing
nothing
nothing
nothing
nothing
nothing
nothing
nothing
nothing
nothing
nothing
nothing
nothing
nothing
nothing
nothing
nothing
nothing
nothing
nothing
nothing
nothing
nothing
nothing
nothing
nothing
nothing
nothing
nothing
nothing
nothing
nothing
nothing
nothing
nothing
nothing
nothing
nothing
nothing
nothing
nothing
nothing
nothing
nothing
nothing
nothing
nothing
nothing
nothing
nothing
nothing
nothing
nothing
nothing
nothing
nothing
nothing
nothing
nothing
nothing
nothing
nothing
nothing
nothing
nothing
nothing
nothing
nothing
nothing
nothing
nothing
nothing
nothing
nothing
nothing
nothing
nothing
nothing
nothing
nothing
nothing
nothing
nothing
nothing
nothing
nothing
nothing
nothing
nothing
nothing
nothing
nothing
nothing
nothing
nothing
nothing
nothing
nothing
nothing
nothing
nothing
nothing
nothing
nothing
nothing
nothing
nothing
nothing
nothing
nothing
nothing
nothing
nothing
nothing
nothing
nothing
nothing
nothing
nothing
nothing
nothing
nothing
nothing
nothing
nothing
nothing
nothing
nothing
nothing
nothing
nothing
nothing
nothing
nothing
nothing
nothing
nothing
nothing
nothing
nothing
nothing
nothing
nothing
nothing
nothing
nothing
nothing
nothing
nothing
nothing
nothing
nothing
nothing
nothing
nothing
nothing
nothing
nothing
nothing
nothing
nothing
nothing
nothing
nothing
nothing
nothing
nothing
nothing
nothing
nothing
nothing
nothing
nothing
nothing
nothing
nothing
nothing
nothing
nothing
nothing
nothing
nothing
nothing
nothing
nothing
nothing
nothing
nothing
nothing
nothing
nothing
nothing
nothing
nothing
nothing
nothing
nothing
nothing
nothing
nothing
nothing
nothing
nothing
nothing
nothing
nothing
nothing
nothing
nothing
nothing
nothing
nothing
nothing
nothing
nothing
nothing
nothing
nothing
nothing
nothing
nothing
nothing
nothing
nothing
nothing
nothing
nothing
nothing
nothing
nothing
nothing
nothing
nothing
nothing
nothing
nothing
nothing
nothing
nothing
nothing
nothing
nothing
nothing
nothing
nothing
nothing
nothing
nothing
nothing
nothing
nothing
nothing
nothing
nothing

dfbasis_cor=special
def2-QZVPP-RI
def2-QZVPP-RI
def2-QZVPP-RI
def2-QZVPP-RI
def2-QZVPP-RI
def2-QZVPP-RI
def2-QZVPP-RI
def2-QZVPP-RI
def2-QZVPP-RI
def2-QZVPP-RI
def2-QZVPP-RI
def2-QZVPP-RI
def2-QZVPP-RI
def2-QZVPP-RI
def2-QZVPP-RI
def2-QZVPP-RI
def2-QZVPP-RI
def2-QZVPP-RI
def2-QZVPP-RI
def2-QZVPP-RI
def2-QZVPP-RI
def2-QZVPP-RI
def2-QZVPP-RI
def2-QZVPP-RI
def2-QZVPP-RI
def2-QZVPP-RI
def2-QZVPP-RI
def2-QZVPP-RI
def2-QZVPP-RI
def2-QZVPP-RI
def2-QZVPP-RI
def2-QZVPP-RI
def2-QZVPP-RI
def2-QZVPP-RI
def2-QZVPP-RI
def2-QZVPP-RI
def2-QZVPP-RI
def2-QZVPP-RI
def2-QZVPP-RI
def2-QZVPP-RI
def2-QZVPP-RI
def2-QZVPP-RI
def2-QZVPP-RI
def2-QZVPP-RI
def2-QZVPP-RI
def2-QZVPP-RI
def2-QZVPP-RI
def2-QZVPP-RI
def2-QZVPP-RI
def2-QZVPP-RI
def2-QZVPP-RI
def2-QZVPP-RI
def2-QZVPP-RI
def2-QZVPP-RI
def2-QZVPP-RI
def2-QZVPP-RI
def2-QZVPP-RI
def2-QZVPP-RI
def2-QZVPP-RI
def2-QZVPP-RI
def2-QZVPP-RI
def2-QZVPP-RI
def2-QZVPP-RI
def2-QZVPP-RI
def2-QZVPP-RI
def2-QZVPP-RI
def2-QZVPP-RI
def2-QZVPP-RI
def2-QZVPP-RI
def2-QZVPP-RI
def2-QZVPP-RI
def2-QZVPP-RI
def2-QZVPP-RI
def2-QZVPP-RI
def2-QZVPP-RI
def2-QZVPP-RI
def2-QZVPP-RI
def2-QZVPP-RI
def2-QZVPP-RI
def2-QZVPP-RI
def2-QZVPP-RI
def2-QZVPP-RI
def2-QZVPP-RI
def2-QZVPP-RI
def2-QZVPP-RI
def2-QZVPP-RI
def2-QZVPP-RI
def2-QZVPP-RI
def2-QZVPP-RI
def2-QZVPP-RI
def2-QZVPP-RI
def2-QZVPP-RI
def2-QZVPP-RI
def2-QZVPP-RI
def2-QZVPP-RI
def2-QZVPP-RI
def2-QZVPP-RI
def2-QZVPP-RI
def2-QZVPP-RI
def2-QZVPP-RI
def2-QZVPP-RI
def2-QZVPP-RI
def2-QZVPP-RI
def2-QZVPP-RI
def2-QZVPP-RI
def2-QZVPP-RI
def2-QZVPP-RI
def2-QZVPP-RI
def2-QZVPP-RI
def2-QZVPP-RI
def2-QZVPP-RI
def2-QZVPP-RI
def2-QZVPP-RI
def2-QZVPP-RI
def2-QZVPP-RI
def2-QZVPP-RI
def2-QZVPP-RI
nothing
nothing
nothing
nothing
nothing
nothing
nothing
nothing
nothing
nothing
nothing
nothing
nothing
nothing
nothing
nothing
nothing
nothing
nothing
nothing
nothing
nothing
nothing
nothing
nothing
nothing
nothing
nothing
nothing
nothing
nothing
nothing
nothing
nothing
nothing
nothing
nothing
nothing
nothing
nothing
nothing
nothing
nothing
nothing
nothing
nothing
nothing
nothing
nothing
nothing
nothing
nothing
nothing
nothing
nothing
nothing
nothing
nothing
nothing
nothing
nothing
nothing
nothing
nothing
nothing
nothing
nothing
nothing
nothing
nothing
nothing
nothing
nothing
nothing
nothing
nothing
nothing
nothing
nothing
nothing
nothing
nothing
nothing
nothing
nothing
nothing
nothing
nothing
nothing
nothing
nothing
nothing
nothing
nothing
nothing
nothing
nothing
nothing
nothing
nothing
nothing
nothing
nothing
nothing
nothing
nothing
nothing
nothing
nothing
nothing
nothing
nothing
nothing
nothing
nothing
nothing
nothing
nothing
nothing
nothing
nothing
nothing
nothing
nothing
nothing
nothing
nothing
nothing
nothing
nothing
nothing
nothing
nothing
nothing
nothing
nothing
nothing
nothing
nothing
nothing
nothing
nothing
nothing
nothing
nothing
nothing
nothing
nothing
nothing
nothing
nothing
nothing
nothing
nothing
nothing
nothing
nothing
nothing
nothing
nothing
nothing
nothing
nothing
nothing
nothing
nothing
nothing
nothing
nothing
nothing
nothing
nothing
nothing
nothing
nothing
nothing
nothing
nothing
nothing
nothing
nothing
nothing
nothing
nothing
nothing
nothing
nothing
nothing
nothing
nothing
nothing
nothing
nothing
nothing
nothing
nothing
nothing
nothing
nothing
nothing
nothing
nothing
nothing
nothing
nothing
nothing
nothing
nothing
nothing
nothing
nothing
nothing
nothing
nothing
nothing
nothing
nothing
nothing
nothing
nothing
nothing
nothing
nothing
nothing
nothing
nothing
nothing
nothing
nothing
nothing
nothing
nothing
nothing
nothing
nothing
nothing
nothing
nothing
nothing
nothing
nothing
nothing
nothing
nothing
nothing
nothing
nothing
nothing
nothing
nothing
nothing
nothing
nothing
nothing
nothing
nothing
nothing
nothing
nothing
nothing
nothing
nothing
nothing
nothing
nothing
nothing
nothing
nothing
nothing
nothing
nothing
nothing
nothing
nothing
nothing
nothing
nothing
nothing
nothing
nothing
nothing
nothing
nothing
nothing
nothing
nothing
nothing
nothing
nothing
nothing
nothing
nothing
nothing
nothing
nothing
nothing
nothing
nothing
nothing
nothing
nothing
nothing
nothing
nothing
nothing
nothing
nothing
nothing
nothing
nothing
nothing
nothing
nothing
nothing
nothing
nothing
nothing
nothing
nothing
nothing
nothing
nothing
nothing
nothing
nothing
nothing
nothing
nothing
nothing
nothing
nothing
nothing
nothing
nothing
nothing
nothing
nothing
nothing
nothing
nothing
nothing
nothing
nothing
nothing
nothing
nothing
nothing
nothing
nothing
nothing
nothing
nothing
nothing
nothing
nothing
nothing
nothing
nothing
nothing
nothing
nothing
nothing
nothing
nothing
nothing
nothing
nothing
nothing
nothing
nothing
nothing
nothing
nothing
nothing
nothing
nothing
nothing
nothing
nothing
nothing
nothing
nothing
nothing
nothing
nothing
nothing
nothing
nothing
nothing
nothing
nothing
nothing
nothing
nothing
nothing
nothing
nothing
nothing
nothing
nothing
nothing
nothing
nothing
nothing
nothing
nothing
nothing
nothing
nothing
nothing
nothing
nothing
nothing
nothing
nothing
nothing
nothing
nothing
nothing
nothing
nothing
nothing
nothing
nothing
nothing
nothing
nothing
nothing
nothing
nothing
nothing
nothing
nothing
nothing
nothing
nothing
nothing
nothing
nothing
nothing
nothing
nothing
nothing
nothing
nothing
nothing
nothing
nothing
nothing
nothing
nothing
nothing
nothing
nothing
nothing
nothing
nothing
nothing
nothing
nothing
nothing
nothing
nothing
nothing
nothing
nothing
nothing
nothing
nothing
nothing
nothing
nothing
nothing
nothing
nothing
nothing
nothing
nothing
nothing
nothing
nothing
nothing
nothing
nothing
nothing
nothing
nothing
nothing
nothing
nothing
nothing
nothing
nothing
nothing
nothing
nothing
nothing
nothing
nothing
nothing

ecp=special
none
none
none
none
none
none
none
none
none
none
none
none
none
none
none
none
none
none
none
none
none
none
none
none
none
none
none
none
none
none
none
none
none
none
none
none
none
none
none
none
none
none
none
none
none
none
none
none
none
none
none
none
none
none
none
none
none
none
none
none
none
none
none
none
none
none
none
none
none
none
none
none
none
none
none
none
none
none
none
none
none
none
none
none
none
none
none
none
none
none
none
none
none
none
none
none
none
none
none
none
none
none
none
none
none
none
none
none
none
none
none
none
none
none
none
none
none
ECP-12
ECP-12
ECP-12
ECP-12
ECP-12
ECP-12
ECP-12
ECP-12
ECP-12
ECP-12
ECP-12
ECP-12
ECP-12
ECP-12
ECP-12
ECP-12
ECP-12
ECP-12
ECP-12
ECP-12
ECP-12
ECP-12
ECP-12
ECP-12
ECP-12
ECP-12
ECP-12
ECP-12
ECP-12
ECP-12
ECP-12
ECP-12
ECP-12
ECP-12
ECP-12
ECP-12
ECP-12
ECP-12
ECP-12
ECP-12
ECP-12
ECP-12
ECP-12
ECP-12
ECP-12
ECP-12
ECP-12
ECP-12
ECP-12
ECP-12
ECP-12
ECP-12
ECP-12
ECP-12
ECP-12
ECP-12
ECP-12
ECP-12
ECP-12
ECP-12
ECP-12
ECP-12
ECP-12
ECP-12
ECP-12
ECP-12
ECP-12
ECP-12
ECP-12
ECP-12
ECP-12
ECP-12
ECP-12
ECP-12
ECP-12
ECP-12
ECP-12
ECP-12
ECP-12
ECP-12
ECP-12
ECP-12
ECP-12
ECP-12
ECP-12
ECP-12
ECP-12
ECP-12
ECP-12
ECP-12
ECP-12
ECP-12
ECP-12
ECP-12
ECP-12
ECP-12
ECP-12
ECP-12
ECP-12
ECP-12
ECP-12
ECP-12
ECP-12
ECP-12
ECP-12
ECP-12
ECP-12
ECP-12
ECP-12
ECP-12
ECP-12
ECP-12
ECP-12
ECP-12
ECP-12
ECP-12
ECP-12
ECP-12
ECP-12
ECP-12
ECP-12
ECP-12
ECP-12
ECP-12
ECP-12
ECP-12
ECP-12
ECP-12
ECP-12
ECP-12
ECP-12
ECP-12
ECP-12
ECP-12
ECP-12
ECP-12
ECP-12
ECP-12
ECP-12
ECP-12
ECP-12
ECP-12
ECP-12
ECP-12
ECP-12
ECP-12
ECP-12
ECP-12
ECP-12
ECP-12
ECP-12
ECP-12
ECP-12
ECP-12
ECP-12
ECP-12
ECP-12
ECP-12
ECP-12
ECP-12
ECP-12
ECP-12
ECP-12
ECP-12
ECP-12
ECP-12
ECP-12
ECP-12
ECP-12
ECP-12
ECP-12
ECP-12
ECP-12
ECP-12
ECP-12
ECP-12
ECP-12
ECP-12
ECP-12
ECP-12
ECP-12
ECP-12
ECP-12
ECP-12
ECP-12
ECP-12
ECP-12
ECP-12
ECP-12
ECP-12
ECP-12
ECP-12
ECP-12
ECP-12
ECP-12
ECP-12
ECP-12
ECP-12
ECP-12
ECP-12
ECP-12
ECP-12
ECP-12
ECP-12
ECP-12
ECP-12
ECP-12
ECP-12
ECP-12
ECP-12
ECP-12
ECP-12
ECP-12
ECP-12
ECP-12
ECP-12
ECP-12
ECP-12
ECP-12
ECP-12
ECP-12
ECP-12
ECP-12
ECP-12
ECP-12
ECP-12
ECP-12
ECP-12
ECP-12
ECP-12
ECP-12
ECP-12
ECP-12
ECP-12
ECP-12
ECP-12
ECP-12
ECP-12
ECP-12
ECP-12
ECP-12
ECP-12
ECP-12
ECP-12
ECP-12
ECP-12
ECP-12
ECP-12
ECP-12
ECP-12
ECP-12
ECP-12
ECP-12
ECP-12
ECP-12
ECP-12
ECP-12
ECP-12
ECP-12
ECP-12
ECP-12
ECP-12
ECP-12
ECP-12
ECP-12
ECP-12
ECP-12
ECP-12
ECP-12
ECP-12
ECP-12
ECP-12
ECP-12
ECP-12
ECP-12
ECP-12
ECP-12
ECP-12
ECP-12
ECP-12
ECP-12
ECP-12
ECP-12
ECP-12
ECP-12
ECP-12
ECP-12
ECP-12
ECP-12
ECP-12
ECP-12
ECP-12
ECP-12
ECP-12
ECP-12
ECP-12
ECP-12
ECP-12
ECP-12
ECP-12
ECP-12
ECP-12
ECP-12
ECP-12
ECP-12
ECP-12
ECP-12
ECP-12
ECP-12
ECP-12
ECP-12
ECP-12
ECP-12
ECP-12
ECP-12
ECP-12
ECP-12
ECP-12
ECP-12
ECP-12
ECP-12
ECP-12
ECP-12
ECP-12
ECP-12
ECP-12
ECP-12
ECP-12
ECP-12
ECP-12
ECP-12
ECP-12
ECP-12
ECP-12
ECP-12
ECP-12
ECP-12
ECP-12
ECP-12
ECP-12
ECP-12
ECP-12
ECP-12
ECP-12
ECP-12
ECP-12
ECP-12
ECP-12
ECP-12
ECP-12
ECP-12
ECP-12
ECP-12
ECP-12
ECP-12
ECP-12
ECP-12
ECP-12
ECP-12
ECP-12
ECP-12
ECP-12
ECP-12
ECP-12
ECP-12
ECP-12
ECP-12
ECP-12
ECP-12
ECP-12
ECP-12
ECP-12
ECP-12
ECP-12
ECP-12
ECP-12
ECP-12
ECP-12
ECP-12
ECP-12
ECP-12
ECP-12
ECP-12
ECP-12
ECP-12
ECP-12
ECP-12
ECP-12
ECP-12
ECP-12
ECP-12
ECP-12
ECP-12
ECP-12
ECP-12
ECP-12
ECP-12
ECP-12
ECP-12
ECP-12
ECP-12
ECP-12
ECP-12
ECP-12
ECP-12
ECP-12
ECP-12
ECP-12
ECP-12
ECP-12
ECP-12
ECP-12
ECP-12
ECP-12
ECP-12
ECP-12
ECP-12
ECP-12
ECP-12
ECP-12
ECP-12
ECP-12
ECP-12
ECP-12
ECP-12
ECP-12
ECP-12
ECP-12
ECP-12
ECP-12
ECP-12
ECP-12
ECP-12
ECP-12
ECP-12
ECP-12
ECP-12
ECP-12
ECP-12
ECP-12
ECP-12
ECP-12
ECP-12
ECP-12
ECP-12
ECP-12
ECP-12
ECP-12
ECP-12
ECP-12
ECP-12
ECP-12
ECP-12
ECP-12
ECP-12
ECP-12
ECP-12
ECP-12
ECP-12
ECP-12
ECP-12
ECP-12
ECP-12
ECP-12
ECP-12
ECP-12
ECP-12
ECP-12
ECP-12
ECP-12
ECP-12
ECP-12
ECP-12
ECP-12
ECP-12
ECP-12
ECP-12
ECP-12
ECP-12
ECP-12
ECP-12
ECP-12
ECP-12
ECP-12
ECP-12
ECP-12
ECP-12
ECP-12
ECP-12
ECP-12
ECP-12
ECP-12
ECP-12
ECP-12
ECP-12
ECP-12
ECP-12
ECP-12
ECP-12
ECP-12

unit=angs
geom=xyz
617
Mg38O79ECP500
O     0.00000000000    0.00000000000    0.00000000000
Mg    0.00000000000    0.00000000000    2.10322906414
Mg   -2.10322906414    0.00000000000    0.00000000000
Mg    0.00000000000    2.10322906414    0.00000000000
Mg    2.10322906414    0.00000000000    0.00000000000
Mg    0.00000000000   -2.10322906414    0.00000000000
Mg    0.00000000000    0.00000000000   -2.10322906414
O    -2.10322906414    0.00000000000    2.10322906414
O     0.00000000000    2.10322906414    2.10322906414
O     2.10322906414    0.00000000000    2.10322906414
O     0.00000000000   -2.10322906414    2.10322906414
O    -2.10322906414    2.10322906414    0.00000000000
O     2.10322906414    2.10322906414    0.00000000000
O     2.10322906414   -2.10322906414    0.00000000000
O    -2.10322906414   -2.10322906414    0.00000000000
O    -2.10322906414    0.00000000000   -2.10322906414
O     0.00000000000    2.10322906414   -2.10322906414
O     2.10322906414    0.00000000000   -2.10322906414
O     0.00000000000   -2.10322906414   -2.10322906414
Mg   -2.10322906414    2.10322906414    2.10322906414
Mg    2.10322906414    2.10322906414    2.10322906414
Mg    2.10322906414   -2.10322906414    2.10322906414
Mg   -2.10322906414   -2.10322906414    2.10322906414
Mg   -2.10322906414    2.10322906414   -2.10322906414
Mg    2.10322906414    2.10322906414   -2.10322906414
Mg    2.10322906414   -2.10322906414   -2.10322906414
Mg   -2.10322906414   -2.10322906414   -2.10322906414
O     0.00000000000    0.00000000000    4.20645812828
O    -4.20645812828    0.00000000000    0.00000000000
O     0.00000000000    4.20645812828    0.00000000000
O     4.20645812828    0.00000000000    0.00000000000
O     0.00000000000   -4.20645812828    0.00000000000
O     0.00000000000    0.00000000000   -4.20645812828
Mg   -2.10322906414    0.00000000000    4.20645812828
Mg    0.00000000000    2.10322906414    4.20645812828
Mg    2.10322906414    0.00000000000    4.20645812828
Mg    0.00000000000   -2.10322906414    4.20645812828
Mg   -4.20645812828    0.00000000000    2.10322906414
Mg    0.00000000000    4.20645812828    2.10322906414
Mg    4.20645812828    0.00000000000    2.10322906414
Mg    0.00000000000   -4.20645812828    2.10322906414
Mg   -4.20645812828    2.10322906414    0.00000000000
Mg   -2.10322906414    4.20645812828    0.00000000000
Mg    2.10322906414    4.20645812828    0.00000000000
Mg    4.20645812828    2.10322906414    0.00000000000
Mg    4.20645812828   -2.10322906414    0.00000000000
Mg    2.10322906414   -4.20645812828    0.00000000000
Mg   -2.10322906414   -4.20645812828    0.00000000000
Mg   -4.20645812828   -2.10322906414    0.00000000000
Mg   -4.20645812828    0.00000000000   -2.10322906414
Mg    0.00000000000    4.20645812828   -2.10322906414
Mg    4.20645812828    0.00000000000   -2.10322906414
Mg    0.00000000000   -4.20645812828   -2.10322906414
Mg   -2.10322906414    0.00000000000   -4.20645812828
Mg    0.00000000000    2.10322906414   -4.20645812828
Mg    2.10322906414    0.00000000000   -4.20645812828
Mg    0.00000000000   -2.10322906414   -4.20645812828
O    -2.10322906414    2.10322906414    4.20645812828
O     2.10322906414    2.10322906414    4.20645812828
O     2.10322906414   -2.10322906414    4.20645812828
O    -2.10322906414   -2.10322906414    4.20645812828
O    -4.20645812828    2.10322906414    2.10322906414
O    -2.10322906414    4.20645812828    2.10322906414
O     2.10322906414    4.20645812828    2.10322906414
O     4.20645812828    2.10322906414    2.10322906414
O     4.20645812828   -2.10322906414    2.10322906414
O     2.10322906414   -4.20645812828    2.10322906414
O    -2.10322906414   -4.20645812828    2.10322906414
O    -4.20645812828   -2.10322906414    2.10322906414
O    -4.20645812828    2.10322906414   -2.10322906414
O    -2.10322906414    4.20645812828   -2.10322906414
O     2.10322906414    4.20645812828   -2.10322906414
O     4.20645812828    2.10322906414   -2.10322906414
O     4.20645812828   -2.10322906414   -2.10322906414
O     2.10322906414   -4.20645812828   -2.10322906414
O    -2.10322906414   -4.20645812828   -2.10322906414
O    -4.20645812828   -2.10322906414   -2.10322906414
O    -2.10322906414    2.10322906414   -4.20645812828
O     2.10322906414    2.10322906414   -4.20645812828
O     2.10322906414   -2.10322906414   -4.20645812828
O    -2.10322906414   -2.10322906414   -4.20645812828
O    -4.20645812828    0.00000000000    4.20645812828
O     0.00000000000    4.20645812828    4.20645812828
O     4.20645812828    0.00000000000    4.20645812828
O     0.00000000000   -4.20645812828    4.20645812828
O    -4.20645812828    4.20645812828    0.00000000000
O     4.20645812828    4.20645812828    0.00000000000
O     4.20645812828   -4.20645812828    0.00000000000
O    -4.20645812828   -4.20645812828    0.00000000000
O    -4.20645812828    0.00000000000   -4.20645812828
O     0.00000000000    4.20645812828   -4.20645812828
O     4.20645812828    0.00000000000   -4.20645812828
O     0.00000000000   -4.20645812828   -4.20645812828
O    -2.10322906414    0.00000000000    6.30968719243
O     0.00000000000    2.10322906414    6.30968719243
O     2.10322906414    0.00000000000    6.30968719243
O     0.00000000000   -2.10322906414    6.30968719243
O    -6.30968719243    0.00000000000    2.10322906414
O     0.00000000000    6.30968719243    2.10322906414
O     6.30968719243    0.00000000000    2.10322906414
O     0.00000000000   -6.30968719243    2.10322906414
O    -6.30968719243    2.10322906414    0.00000000000
O    -2.10322906414    6.30968719243    0.00000000000
O     2.10322906414    6.30968719243    0.00000000000
O     6.30968719243    2.10322906414    0.00000000000
O     6.30968719243   -2.10322906414    0.00000000000
O     2.10322906414   -6.30968719243    0.00000000000
O    -2.10322906414   -6.30968719243    0.00000000000
O    -6.30968719243   -2.10322906414    0.00000000000
O    -6.30968719243    0.00000000000   -2.10322906414
O     0.00000000000    6.30968719243   -2.10322906414
O     6.30968719243    0.00000000000   -2.10322906414
O     0.00000000000   -6.30968719243   -2.10322906414
O    -2.10322906414    0.00000000000   -6.30968719243
O     0.00000000000    2.10322906414   -6.30968719243
O     2.10322906414    0.00000000000   -6.30968719243
O     0.00000000000   -2.10322906414   -6.30968719243
Mg    0.00000000000    0.00000000000    6.30968719243
Mg   -4.20645812828    2.10322906414    4.20645812828
Mg   -2.10322906414    4.20645812828    4.20645812828
Mg    2.10322906414    4.20645812828    4.20645812828
Mg    4.20645812828    2.10322906414    4.20645812828
Mg    4.20645812828   -2.10322906414    4.20645812828
Mg    2.10322906414   -4.20645812828    4.20645812828
Mg   -2.10322906414   -4.20645812828    4.20645812828
Mg   -4.20645812828   -2.10322906414    4.20645812828
Mg   -4.20645812828    4.20645812828    2.10322906414
Mg    4.20645812828    4.20645812828    2.10322906414
Mg    4.20645812828   -4.20645812828    2.10322906414
Mg   -4.20645812828   -4.20645812828    2.10322906414
Mg   -6.30968719243    0.00000000000    0.00000000000
Mg    0.00000000000    6.30968719243    0.00000000000
Mg    6.30968719243    0.00000000000    0.00000000000
Mg    0.00000000000   -6.30968719243    0.00000000000
Mg   -4.20645812828    4.20645812828   -2.10322906414
Mg    4.20645812828    4.20645812828   -2.10322906414
Mg    4.20645812828   -4.20645812828   -2.10322906414
Mg   -4.20645812828   -4.20645812828   -2.10322906414
Mg   -4.20645812828    2.10322906414   -4.20645812828
Mg   -2.10322906414    4.20645812828   -4.20645812828
Mg    2.10322906414    4.20645812828   -4.20645812828
Mg    4.20645812828    2.10322906414   -4.20645812828
Mg    4.20645812828   -2.10322906414   -4.20645812828
Mg    2.10322906414   -4.20645812828   -4.20645812828
Mg   -2.10322906414   -4.20645812828   -4.20645812828
Mg   -4.20645812828   -2.10322906414   -4.20645812828
Mg    0.00000000000    0.00000000000   -6.30968719243
Mg   -2.10322906414    2.10322906414    6.30968719243
Mg    2.10322906414    2.10322906414    6.30968719243
Mg    2.10322906414   -2.10322906414    6.30968719243
Mg   -2.10322906414   -2.10322906414    6.30968719243
Mg   -6.30968719243    2.10322906414    2.10322906414
Mg   -2.10322906414    6.30968719243    2.10322906414
Mg    2.10322906414    6.30968719243    2.10322906414
Mg    6.30968719243    2.10322906414    2.10322906414
Mg    6.30968719243   -2.10322906414    2.10322906414
Mg    2.10322906414   -6.30968719243    2.10322906414
Mg   -2.10322906414   -6.30968719243    2.10322906414
Mg   -6.30968719243   -2.10322906414    2.10322906414
Mg   -6.30968719243    2.10322906414   -2.10322906414
Mg   -2.10322906414    6.30968719243   -2.10322906414
Mg    2.10322906414    6.30968719243   -2.10322906414
Mg    6.30968719243    2.10322906414   -2.10322906414
Mg    6.30968719243   -2.10322906414   -2.10322906414
Mg    2.10322906414   -6.30968719243   -2.10322906414
Mg   -2.10322906414   -6.30968719243   -2.10322906414
Mg   -6.30968719243   -2.10322906414   -2.10322906414
Mg   -2.10322906414    2.10322906414   -6.30968719243
Mg    2.10322906414    2.10322906414   -6.30968719243
Mg    2.10322906414   -2.10322906414   -6.30968719243
Mg   -2.10322906414   -2.10322906414   -6.30968719243
Mg   -4.20645812828    0.00000000000    6.30968719243
Mg    0.00000000000    4.20645812828    6.30968719243
Mg    4.20645812828    0.00000000000    6.30968719243
Mg    0.00000000000   -4.20645812828    6.30968719243
Mg   -6.30968719243    0.00000000000    4.20645812828
Mg    0.00000000000    6.30968719243    4.20645812828
Mg    6.30968719243    0.00000000000    4.20645812828
Mg    0.00000000000   -6.30968719243    4.20645812828
Mg   -6.30968719243    4.20645812828    0.00000000000
Mg   -4.20645812828    6.30968719243    0.00000000000
Mg    4.20645812828    6.30968719243    0.00000000000
Mg    6.30968719243    4.20645812828    0.00000000000
Mg    6.30968719243   -4.20645812828    0.00000000000
Mg    4.20645812828   -6.30968719243    0.00000000000
Mg   -4.20645812828   -6.30968719243    0.00000000000
Mg   -6.30968719243   -4.20645812828    0.00000000000
Mg   -6.30968719243    0.00000000000   -4.20645812828
Mg    0.00000000000    6.30968719243   -4.20645812828
Mg    6.30968719243    0.00000000000   -4.20645812828
Mg    0.00000000000   -6.30968719243   -4.20645812828
Mg   -4.20645812828    0.00000000000   -6.30968719243
Mg    0.00000000000    4.20645812828   -6.30968719243
Mg    4.20645812828    0.00000000000   -6.30968719243
Mg    0.00000000000   -4.20645812828   -6.30968719243
Mg   -2.10322906414    0.00000000000    8.41291625657
Mg    0.00000000000    2.10322906414    8.41291625657
Mg    2.10322906414    0.00000000000    8.41291625657
Mg    0.00000000000   -2.10322906414    8.41291625657
Mg   -4.20645812828    4.20645812828    6.30968719243
Mg    4.20645812828    4.20645812828    6.30968719243
Mg    4.20645812828   -4.20645812828    6.30968719243
Mg   -4.20645812828   -4.20645812828    6.30968719243
Mg   -6.30968719243    4.20645812828    4.20645812828
Mg   -4.20645812828    6.30968719243    4.20645812828
Mg    4.20645812828    6.30968719243    4.20645812828
Mg    6.30968719243    4.20645812828    4.20645812828
Mg    6.30968719243   -4.20645812828    4.20645812828
Mg    4.20645812828   -6.30968719243    4.20645812828
Mg   -4.20645812828   -6.30968719243    4.20645812828
Mg   -6.30968719243   -4.20645812828    4.20645812828
Mg   -8.41291625657    0.00000000000    2.10322906414
Mg    0.00000000000    8.41291625657    2.10322906414
Mg    8.41291625657    0.00000000000    2.10322906414
Mg    0.00000000000   -8.41291625657    2.10322906414
Mg   -8.41291625657    2.10322906414    0.00000000000
Mg   -2.10322906414    8.41291625657    0.00000000000
Mg    2.10322906414    8.41291625657    0.00000000000
Mg    8.41291625657    2.10322906414    0.00000000000
Mg    8.41291625657   -2.10322906414    0.00000000000
Mg    2.10322906414   -8.41291625657    0.00000000000
Mg   -2.10322906414   -8.41291625657    0.00000000000
Mg   -8.41291625657   -2.10322906414    0.00000000000
Mg   -8.41291625657    0.00000000000   -2.10322906414
Mg    0.00000000000    8.41291625657   -2.10322906414
Mg    8.41291625657    0.00000000000   -2.10322906414
Mg    0.00000000000   -8.41291625657   -2.10322906414
Mg   -6.30968719243    4.20645812828   -4.20645812828
Mg   -4.20645812828    6.30968719243   -4.20645812828
Mg    4.20645812828    6.30968719243   -4.20645812828
Mg    6.30968719243    4.20645812828   -4.20645812828
Mg    6.30968719243   -4.20645812828   -4.20645812828
Mg    4.20645812828   -6.30968719243   -4.20645812828
Mg   -4.20645812828   -6.30968719243   -4.20645812828
Mg   -6.30968719243   -4.20645812828   -4.20645812828
Mg   -4.20645812828    4.20645812828   -6.30968719243
Mg    4.20645812828    4.20645812828   -6.30968719243
Mg    4.20645812828   -4.20645812828   -6.30968719243
Mg   -4.20645812828   -4.20645812828   -6.30968719243
Mg   -2.10322906414    0.00000000000   -8.41291625657
Mg    0.00000000000    2.10322906414   -8.41291625657
Mg    2.10322906414    0.00000000000   -8.41291625657
Mg    0.00000000000   -2.10322906414   -8.41291625657
Mg   -6.30968719243    2.10322906414    6.30968719243
Mg   -2.10322906414    6.30968719243    6.30968719243
Mg    2.10322906414    6.30968719243    6.30968719243
Mg    6.30968719243    2.10322906414    6.30968719243
Mg    6.30968719243   -2.10322906414    6.30968719243
Mg    2.10322906414   -6.30968719243    6.30968719243
Mg   -2.10322906414   -6.30968719243    6.30968719243
Mg   -6.30968719243   -2.10322906414    6.30968719243
Mg   -6.30968719243    6.30968719243    2.10322906414
Mg    6.30968719243    6.30968719243    2.10322906414
Mg    6.30968719243   -6.30968719243    2.10322906414
Mg   -6.30968719243   -6.30968719243    2.10322906414
Mg   -6.30968719243    6.30968719243   -2.10322906414
Mg    6.30968719243    6.30968719243   -2.10322906414
Mg    6.30968719243   -6.30968719243   -2.10322906414
Mg   -6.30968719243   -6.30968719243   -2.10322906414
Mg   -6.30968719243    2.10322906414   -6.30968719243
Mg   -2.10322906414    6.30968719243   -6.30968719243
Mg    2.10322906414    6.30968719243   -6.30968719243
Mg    6.30968719243    2.10322906414   -6.30968719243
Mg    6.30968719243   -2.10322906414   -6.30968719243
Mg    2.10322906414   -6.30968719243   -6.30968719243
Mg   -2.10322906414   -6.30968719243   -6.30968719243
Mg   -6.30968719243   -2.10322906414   -6.30968719243
Mg   -4.20645812828    2.10322906414    8.41291625657
Mg   -2.10322906414    4.20645812828    8.41291625657
Mg    2.10322906414    4.20645812828    8.41291625657
Mg    4.20645812828    2.10322906414    8.41291625657
Mg    4.20645812828   -2.10322906414    8.41291625657
Mg    2.10322906414   -4.20645812828    8.41291625657
Mg   -2.10322906414   -4.20645812828    8.41291625657
Mg   -4.20645812828   -2.10322906414    8.41291625657
Mg   -8.41291625657    2.10322906414    4.20645812828
Mg   -2.10322906414    8.41291625657    4.20645812828
Mg    2.10322906414    8.41291625657    4.20645812828
Mg    8.41291625657    2.10322906414    4.20645812828
Mg    8.41291625657   -2.10322906414    4.20645812828
Mg    2.10322906414   -8.41291625657    4.20645812828
Mg   -2.10322906414   -8.41291625657    4.20645812828
Mg   -8.41291625657   -2.10322906414    4.20645812828
Mg   -8.41291625657    4.20645812828    2.10322906414
Mg   -4.20645812828    8.41291625657    2.10322906414
Mg    4.20645812828    8.41291625657    2.10322906414
Mg    8.41291625657    4.20645812828    2.10322906414
Mg    8.41291625657   -4.20645812828    2.10322906414
Mg    4.20645812828   -8.41291625657    2.10322906414
Mg   -4.20645812828   -8.41291625657    2.10322906414
Mg   -8.41291625657   -4.20645812828    2.10322906414
Mg   -8.41291625657    4.20645812828   -2.10322906414
Mg   -4.20645812828    8.41291625657   -2.10322906414
Mg    4.20645812828    8.41291625657   -2.10322906414
Mg    8.41291625657    4.20645812828   -2.10322906414
Mg    8.41291625657   -4.20645812828   -2.10322906414
Mg    4.20645812828   -8.41291625657   -2.10322906414
Mg   -4.20645812828   -8.41291625657   -2.10322906414
Mg   -8.41291625657   -4.20645812828   -2.10322906414
Mg   -8.41291625657    2.10322906414   -4.20645812828
Mg   -2.10322906414    8.41291625657   -4.20645812828
Mg    2.10322906414    8.41291625657   -4.20645812828
Mg    8.41291625657    2.10322906414   -4.20645812828
Mg    8.41291625657   -2.10322906414   -4.20645812828
Mg    2.10322906414   -8.41291625657   -4.20645812828
Mg   -2.10322906414   -8.41291625657   -4.20645812828
Mg   -8.41291625657   -2.10322906414   -4.20645812828
Mg   -4.20645812828    2.10322906414   -8.41291625657
Mg   -2.10322906414    4.20645812828   -8.41291625657
Mg    2.10322906414    4.20645812828   -8.41291625657
Mg    4.20645812828    2.10322906414   -8.41291625657
Mg    4.20645812828   -2.10322906414   -8.41291625657
Mg    2.10322906414   -4.20645812828   -8.41291625657
Mg   -2.10322906414   -4.20645812828   -8.41291625657
Mg   -4.20645812828   -2.10322906414   -8.41291625657
Mg    0.00000000000    0.00000000000   10.51614532071
Mg   -6.30968719243    0.00000000000    8.41291625657
Mg    0.00000000000    6.30968719243    8.41291625657
Mg    6.30968719243    0.00000000000    8.41291625657
Mg    0.00000000000   -6.30968719243    8.41291625657
Mg   -8.41291625657    0.00000000000    6.30968719243
Mg    0.00000000000    8.41291625657    6.30968719243
Mg    8.41291625657    0.00000000000    6.30968719243
Mg    0.00000000000   -8.41291625657    6.30968719243
Mg  -10.51614532071    0.00000000000    0.00000000000
Mg   -8.41291625657    6.30968719243    0.00000000000
Mg   -6.30968719243    8.41291625657    0.00000000000
Mg    0.00000000000   10.51614532071    0.00000000000
Mg    6.30968719243    8.41291625657    0.00000000000
Mg    8.41291625657    6.30968719243    0.00000000000
Mg   10.51614532071    0.00000000000    0.00000000000
Mg    8.41291625657   -6.30968719243    0.00000000000
Mg    6.30968719243   -8.41291625657    0.00000000000
Mg    0.00000000000  -10.51614532071    0.00000000000
Mg   -6.30968719243   -8.41291625657    0.00000000000
Mg   -8.41291625657   -6.30968719243    0.00000000000
Mg   -8.41291625657    0.00000000000   -6.30968719243
Mg    0.00000000000    8.41291625657   -6.30968719243
Mg    8.41291625657    0.00000000000   -6.30968719243
Mg    0.00000000000   -8.41291625657   -6.30968719243
Mg   -6.30968719243    0.00000000000   -8.41291625657
Mg    0.00000000000    6.30968719243   -8.41291625657
Mg    6.30968719243    0.00000000000   -8.41291625657
Mg    0.00000000000   -6.30968719243   -8.41291625657
Mg    0.00000000000    0.00000000000  -10.51614532071
Mg   -2.10322906414    2.10322906414   10.51614532071
Mg    2.10322906414    2.10322906414   10.51614532071
Mg    2.10322906414   -2.10322906414   10.51614532071
Mg   -2.10322906414   -2.10322906414   10.51614532071
Mg   -6.30968719243    6.30968719243    6.30968719243
Mg    6.30968719243    6.30968719243    6.30968719243
Mg    6.30968719243   -6.30968719243    6.30968719243
Mg   -6.30968719243   -6.30968719243    6.30968719243
Mg  -10.51614532071    2.10322906414    2.10322906414
Mg   -2.10322906414   10.51614532071    2.10322906414
Mg    2.10322906414   10.51614532071    2.10322906414
Mg   10.51614532071    2.10322906414    2.10322906414
Mg   10.51614532071   -2.10322906414    2.10322906414
Mg    2.10322906414  -10.51614532071    2.10322906414
Mg   -2.10322906414  -10.51614532071    2.10322906414
Mg  -10.51614532071   -2.10322906414    2.10322906414
Mg  -10.51614532071    2.10322906414   -2.10322906414
Mg   -2.10322906414   10.51614532071   -2.10322906414
Mg    2.10322906414   10.51614532071   -2.10322906414
Mg   10.51614532071    2.10322906414   -2.10322906414
Mg   10.51614532071   -2.10322906414   -2.10322906414
Mg    2.10322906414  -10.51614532071   -2.10322906414
Mg   -2.10322906414  -10.51614532071   -2.10322906414
Mg  -10.51614532071   -2.10322906414   -2.10322906414
Mg   -6.30968719243    6.30968719243   -6.30968719243
Mg    6.30968719243    6.30968719243   -6.30968719243
Mg    6.30968719243   -6.30968719243   -6.30968719243
Mg   -6.30968719243   -6.30968719243   -6.30968719243
Mg   -2.10322906414    2.10322906414  -10.51614532071
Mg    2.10322906414    2.10322906414  -10.51614532071
Mg    2.10322906414   -2.10322906414  -10.51614532071
Mg   -2.10322906414   -2.10322906414  -10.51614532071
Mg   -4.20645812828    0.00000000000   10.51614532071
Mg    0.00000000000    4.20645812828   10.51614532071
Mg    4.20645812828    0.00000000000   10.51614532071
Mg    0.00000000000   -4.20645812828   10.51614532071
Mg   -6.30968719243    4.20645812828    8.41291625657
Mg   -4.20645812828    6.30968719243    8.41291625657
Mg    4.20645812828    6.30968719243    8.41291625657
Mg    6.30968719243    4.20645812828    8.41291625657
Mg    6.30968719243   -4.20645812828    8.41291625657
Mg    4.20645812828   -6.30968719243    8.41291625657
Mg   -4.20645812828   -6.30968719243    8.41291625657
Mg   -6.30968719243   -4.20645812828    8.41291625657
Mg   -8.41291625657    4.20645812828    6.30968719243
Mg   -4.20645812828    8.41291625657    6.30968719243
Mg    4.20645812828    8.41291625657    6.30968719243
Mg    8.41291625657    4.20645812828    6.30968719243
Mg    8.41291625657   -4.20645812828    6.30968719243
Mg    4.20645812828   -8.41291625657    6.30968719243
Mg   -4.20645812828   -8.41291625657    6.30968719243
Mg   -8.41291625657   -4.20645812828    6.30968719243
Mg  -10.51614532071    0.00000000000    4.20645812828
Mg   -8.41291625657    6.30968719243    4.20645812828
Mg   -6.30968719243    8.41291625657    4.20645812828
Mg    0.00000000000   10.51614532071    4.20645812828
Mg    6.30968719243    8.41291625657    4.20645812828
Mg    8.41291625657    6.30968719243    4.20645812828
Mg   10.51614532071    0.00000000000    4.20645812828
Mg    8.41291625657   -6.30968719243    4.20645812828
Mg    6.30968719243   -8.41291625657    4.20645812828
Mg    0.00000000000  -10.51614532071    4.20645812828
Mg   -6.30968719243   -8.41291625657    4.20645812828
Mg   -8.41291625657   -6.30968719243    4.20645812828
Mg  -10.51614532071    4.20645812828    0.00000000000
Mg   -4.20645812828   10.51614532071    0.00000000000
Mg    4.20645812828   10.51614532071    0.00000000000
Mg   10.51614532071    4.20645812828    0.00000000000
Mg   10.51614532071   -4.20645812828    0.00000000000
Mg    4.20645812828  -10.51614532071    0.00000000000
Mg   -4.20645812828  -10.51614532071    0.00000000000
Mg  -10.51614532071   -4.20645812828    0.00000000000
Mg  -10.51614532071    0.00000000000   -4.20645812828
Mg   -8.41291625657    6.30968719243   -4.20645812828
Mg   -6.30968719243    8.41291625657   -4.20645812828
Mg    0.00000000000   10.51614532071   -4.20645812828
Mg    6.30968719243    8.41291625657   -4.20645812828
Mg    8.41291625657    6.30968719243   -4.20645812828
Mg   10.51614532071    0.00000000000   -4.20645812828
Mg    8.41291625657   -6.30968719243   -4.20645812828
Mg    6.30968719243   -8.41291625657   -4.20645812828
Mg    0.00000000000  -10.51614532071   -4.20645812828
Mg   -6.30968719243   -8.41291625657   -4.20645812828
Mg   -8.41291625657   -6.30968719243   -4.20645812828
Mg   -8.41291625657    4.20645812828   -6.30968719243
Mg   -4.20645812828    8.41291625657   -6.30968719243
Mg    4.20645812828    8.41291625657   -6.30968719243
Mg    8.41291625657    4.20645812828   -6.30968719243
Mg    8.41291625657   -4.20645812828   -6.30968719243
Mg    4.20645812828   -8.41291625657   -6.30968719243
Mg   -4.20645812828   -8.41291625657   -6.30968719243
Mg   -8.41291625657   -4.20645812828   -6.30968719243
Mg   -6.30968719243    4.20645812828   -8.41291625657
Mg   -4.20645812828    6.30968719243   -8.41291625657
Mg    4.20645812828    6.30968719243   -8.41291625657
Mg    6.30968719243    4.20645812828   -8.41291625657
Mg    6.30968719243   -4.20645812828   -8.41291625657
Mg    4.20645812828   -6.30968719243   -8.41291625657
Mg   -4.20645812828   -6.30968719243   -8.41291625657
Mg   -6.30968719243   -4.20645812828   -8.41291625657
Mg   -4.20645812828    0.00000000000  -10.51614532071
Mg    0.00000000000    4.20645812828  -10.51614532071
Mg    4.20645812828    0.00000000000  -10.51614532071
Mg    0.00000000000   -4.20645812828  -10.51614532071
Mg   -4.20645812828    4.20645812828   10.51614532071
Mg    4.20645812828    4.20645812828   10.51614532071
Mg    4.20645812828   -4.20645812828   10.51614532071
Mg   -4.20645812828   -4.20645812828   10.51614532071
Mg   -8.41291625657    2.10322906414    8.41291625657
Mg   -2.10322906414    8.41291625657    8.41291625657
Mg    2.10322906414    8.41291625657    8.41291625657
Mg    8.41291625657    2.10322906414    8.41291625657
Mg    8.41291625657   -2.10322906414    8.41291625657
Mg    2.10322906414   -8.41291625657    8.41291625657
Mg   -2.10322906414   -8.41291625657    8.41291625657
Mg   -8.41291625657   -2.10322906414    8.41291625657
Mg  -10.51614532071    4.20645812828    4.20645812828
Mg   -4.20645812828   10.51614532071    4.20645812828
Mg    4.20645812828   10.51614532071    4.20645812828
Mg   10.51614532071    4.20645812828    4.20645812828
Mg   10.51614532071   -4.20645812828    4.20645812828
Mg    4.20645812828  -10.51614532071    4.20645812828
Mg   -4.20645812828  -10.51614532071    4.20645812828
Mg  -10.51614532071   -4.20645812828    4.20645812828
Mg   -8.41291625657    8.41291625657    2.10322906414
Mg    8.41291625657    8.41291625657    2.10322906414
Mg    8.41291625657   -8.41291625657    2.10322906414
Mg   -8.41291625657   -8.41291625657    2.10322906414
Mg   -8.41291625657    8.41291625657   -2.10322906414
Mg    8.41291625657    8.41291625657   -2.10322906414
Mg    8.41291625657   -8.41291625657   -2.10322906414
Mg   -8.41291625657   -8.41291625657   -2.10322906414
Mg  -10.51614532071    4.20645812828   -4.20645812828
Mg   -4.20645812828   10.51614532071   -4.20645812828
Mg    4.20645812828   10.51614532071   -4.20645812828
Mg   10.51614532071    4.20645812828   -4.20645812828
Mg   10.51614532071   -4.20645812828   -4.20645812828
Mg    4.20645812828  -10.51614532071   -4.20645812828
Mg   -4.20645812828  -10.51614532071   -4.20645812828
Mg  -10.51614532071   -4.20645812828   -4.20645812828
Mg   -8.41291625657    2.10322906414   -8.41291625657
Mg   -2.10322906414    8.41291625657   -8.41291625657
Mg    2.10322906414    8.41291625657   -8.41291625657
Mg    8.41291625657    2.10322906414   -8.41291625657
Mg    8.41291625657   -2.10322906414   -8.41291625657
Mg    2.10322906414   -8.41291625657   -8.41291625657
Mg   -2.10322906414   -8.41291625657   -8.41291625657
Mg   -8.41291625657   -2.10322906414   -8.41291625657
Mg   -4.20645812828    4.20645812828  -10.51614532071
Mg    4.20645812828    4.20645812828  -10.51614532071
Mg    4.20645812828   -4.20645812828  -10.51614532071
Mg   -4.20645812828   -4.20645812828  -10.51614532071
Mg   -6.30968719243    2.10322906414   10.51614532071
Mg   -2.10322906414    6.30968719243   10.51614532071
Mg    2.10322906414    6.30968719243   10.51614532071
Mg    6.30968719243    2.10322906414   10.51614532071
Mg    6.30968719243   -2.10322906414   10.51614532071
Mg    2.10322906414   -6.30968719243   10.51614532071
Mg   -2.10322906414   -6.30968719243   10.51614532071
Mg   -6.30968719243   -2.10322906414   10.51614532071
Mg  -10.51614532071    2.10322906414    6.30968719243
Mg   -2.10322906414   10.51614532071    6.30968719243
Mg    2.10322906414   10.51614532071    6.30968719243
Mg   10.51614532071    2.10322906414    6.30968719243
Mg   10.51614532071   -2.10322906414    6.30968719243
Mg    2.10322906414  -10.51614532071    6.30968719243
Mg   -2.10322906414  -10.51614532071    6.30968719243
Mg  -10.51614532071   -2.10322906414    6.30968719243
Mg  -10.51614532071    6.30968719243    2.10322906414
Mg   -6.30968719243   10.51614532071    2.10322906414
Mg    6.30968719243   10.51614532071    2.10322906414
Mg   10.51614532071    6.30968719243    2.10322906414
Mg   10.51614532071   -6.30968719243    2.10322906414
Mg    6.30968719243  -10.51614532071    2.10322906414
Mg   -6.30968719243  -10.51614532071    2.10322906414
Mg  -10.51614532071   -6.30968719243    2.10322906414
Mg  -10.51614532071    6.30968719243   -2.10322906414
Mg   -6.30968719243   10.51614532071   -2.10322906414
Mg    6.30968719243   10.51614532071   -2.10322906414
Mg   10.51614532071    6.30968719243   -2.10322906414
Mg   10.51614532071   -6.30968719243   -2.10322906414
Mg    6.30968719243  -10.51614532071   -2.10322906414
Mg   -6.30968719243  -10.51614532071   -2.10322906414
Mg  -10.51614532071   -6.30968719243   -2.10322906414
Mg  -10.51614532071    2.10322906414   -6.30968719243
Mg   -2.10322906414   10.51614532071   -6.30968719243
Mg    2.10322906414   10.51614532071   -6.30968719243
Mg   10.51614532071    2.10322906414   -6.30968719243
Mg   10.51614532071   -2.10322906414   -6.30968719243
Mg    2.10322906414  -10.51614532071   -6.30968719243
Mg   -2.10322906414  -10.51614532071   -6.30968719243
Mg  -10.51614532071   -2.10322906414   -6.30968719243
Mg   -6.30968719243    2.10322906414  -10.51614532071
Mg   -2.10322906414    6.30968719243  -10.51614532071
Mg    2.10322906414    6.30968719243  -10.51614532071
Mg    6.30968719243    2.10322906414  -10.51614532071
Mg    6.30968719243   -2.10322906414  -10.51614532071
Mg    2.10322906414   -6.30968719243  -10.51614532071
Mg   -2.10322906414   -6.30968719243  -10.51614532071
Mg   -6.30968719243   -2.10322906414  -10.51614532071
Mg   -2.10322906414    0.00000000000   12.61937438485
Mg    0.00000000000    2.10322906414   12.61937438485
Mg    2.10322906414    0.00000000000   12.61937438485
Mg    0.00000000000   -2.10322906414   12.61937438485
Mg  -12.61937438485    0.00000000000    2.10322906414
Mg    0.00000000000   12.61937438485    2.10322906414
Mg   12.61937438485    0.00000000000    2.10322906414
Mg    0.00000000000  -12.61937438485    2.10322906414
Mg  -12.61937438485    2.10322906414    0.00000000000
Mg   -2.10322906414   12.61937438485    0.00000000000
Mg    2.10322906414   12.61937438485    0.00000000000
Mg   12.61937438485    2.10322906414    0.00000000000
Mg   12.61937438485   -2.10322906414    0.00000000000
Mg    2.10322906414  -12.61937438485    0.00000000000
Mg   -2.10322906414  -12.61937438485    0.00000000000
Mg  -12.61937438485   -2.10322906414    0.00000000000
Mg  -12.61937438485    0.00000000000   -2.10322906414
Mg    0.00000000000   12.61937438485   -2.10322906414
Mg   12.61937438485    0.00000000000   -2.10322906414
Mg    0.00000000000  -12.61937438485   -2.10322906414
Mg   -2.10322906414    0.00000000000  -12.61937438485
Mg    0.00000000000    2.10322906414  -12.61937438485
Mg    2.10322906414    0.00000000000  -12.61937438485
Mg    0.00000000000   -2.10322906414  -12.61937438485
Mg   -4.20645812828    2.10322906414   12.61937438485
Mg   -2.10322906414    4.20645812828   12.61937438485
Mg    2.10322906414    4.20645812828   12.61937438485
Mg    4.20645812828    2.10322906414   12.61937438485
Mg    4.20645812828   -2.10322906414   12.61937438485
Mg    2.10322906414   -4.20645812828   12.61937438485
Mg   -2.10322906414   -4.20645812828   12.61937438485
Mg   -4.20645812828   -2.10322906414   12.61937438485
Mg  -12.61937438485    2.10322906414    4.20645812828
Mg   -2.10322906414   12.61937438485    4.20645812828
Mg    2.10322906414   12.61937438485    4.20645812828
Mg   12.61937438485    2.10322906414    4.20645812828
Mg   12.61937438485   -2.10322906414    4.20645812828
Mg    2.10322906414  -12.61937438485    4.20645812828
Mg   -2.10322906414  -12.61937438485    4.20645812828
Mg  -12.61937438485   -2.10322906414    4.20645812828
Mg  -12.61937438485    4.20645812828    2.10322906414
Mg   -4.20645812828   12.61937438485    2.10322906414
Mg    4.20645812828   12.61937438485    2.10322906414
Mg   12.61937438485    4.20645812828    2.10322906414
Mg   12.61937438485   -4.20645812828    2.10322906414
Mg    4.20645812828  -12.61937438485    2.10322906414
Mg   -4.20645812828  -12.61937438485    2.10322906414
Mg  -12.61937438485   -4.20645812828    2.10322906414
Mg  -12.61937438485    4.20645812828   -2.10322906414
Mg   -4.20645812828   12.61937438485   -2.10322906414
Mg    4.20645812828   12.61937438485   -2.10322906414
Mg   12.61937438485    4.20645812828   -2.10322906414
Mg   12.61937438485   -4.20645812828   -2.10322906414
Mg    4.20645812828  -12.61937438485   -2.10322906414
Mg   -4.20645812828  -12.61937438485   -2.10322906414
Mg  -12.61937438485   -4.20645812828   -2.10322906414
Mg  -12.61937438485    2.10322906414   -4.20645812828
Mg   -2.10322906414   12.61937438485   -4.20645812828
Mg    2.10322906414   12.61937438485   -4.20645812828
Mg   12.61937438485    2.10322906414   -4.20645812828
Mg   12.61937438485   -2.10322906414   -4.20645812828
Mg    2.10322906414  -12.61937438485   -4.20645812828
Mg   -2.10322906414  -12.61937438485   -4.20645812828
Mg  -12.61937438485   -2.10322906414   -4.20645812828
Mg   -4.20645812828    2.10322906414  -12.61937438485
Mg   -2.10322906414    4.20645812828  -12.61937438485
Mg    2.10322906414    4.20645812828  -12.61937438485
Mg    4.20645812828    2.10322906414  -12.61937438485
Mg    4.20645812828   -2.10322906414  -12.61937438485
Mg    2.10322906414   -4.20645812828  -12.61937438485
Mg   -2.10322906414   -4.20645812828  -12.61937438485
Mg   -4.20645812828   -2.10322906414  -12.61937438485

qmmm=Amber
pointcharges
12032
      0.00000000000    0.00000000000    6.30968719243    2.00000000000
     -4.20645812828    2.10322906414    4.20645812828    2.00000000000
     -2.10322906414    4.20645812828    4.20645812828    2.00000000000
      2.10322906414    4.20645812828    4.20645812828    2.00000000000
      4.20645812828    2.10322906414    4.20645812828    2.00000000000
      4.20645812828   -2.10322906414    4.20645812828    2.00000000000
      2.10322906414   -4.20645812828    4.20645812828    2.00000000000
     -2.10322906414   -4.20645812828    4.20645812828    2.00000000000
     -4.20645812828   -2.10322906414    4.20645812828    2.00000000000
     -4.20645812828    4.20645812828    2.10322906414    2.00000000000
      4.20645812828    4.20645812828    2.10322906414    2.00000000000
      4.20645812828   -4.20645812828    2.10322906414    2.00000000000
     -4.20645812828   -4.20645812828    2.10322906414    2.00000000000
     -6.30968719243    0.00000000000    0.00000000000    2.00000000000
      0.00000000000    6.30968719243    0.00000000000    2.00000000000
      6.30968719243    0.00000000000    0.00000000000    2.00000000000
      0.00000000000   -6.30968719243    0.00000000000    2.00000000000
     -4.20645812828    4.20645812828   -2.10322906414    2.00000000000
      4.20645812828    4.20645812828   -2.10322906414    2.00000000000
      4.20645812828   -4.20645812828   -2.10322906414    2.00000000000
     -4.20645812828   -4.20645812828   -2.10322906414    2.00000000000
     -4.20645812828    2.10322906414   -4.20645812828    2.00000000000
     -2.10322906414    4.20645812828   -4.20645812828    2.00000000000
      2.10322906414    4.20645812828   -4.20645812828    2.00000000000
      4.20645812828    2.10322906414   -4.20645812828    2.00000000000
      4.20645812828   -2.10322906414   -4.20645812828    2.00000000000
      2.10322906414   -4.20645812828   -4.20645812828    2.00000000000
     -2.10322906414   -4.20645812828   -4.20645812828    2.00000000000
     -4.20645812828   -2.10322906414   -4.20645812828    2.00000000000
      0.00000000000    0.00000000000   -6.30968719243    2.00000000000
     -2.10322906414    2.10322906414    6.30968719243    2.00000000000
      2.10322906414    2.10322906414    6.30968719243    2.00000000000
      2.10322906414   -2.10322906414    6.30968719243    2.00000000000
     -2.10322906414   -2.10322906414    6.30968719243    2.00000000000
     -6.30968719243    2.10322906414    2.10322906414    2.00000000000
     -2.10322906414    6.30968719243    2.10322906414    2.00000000000
      2.10322906414    6.30968719243    2.10322906414    2.00000000000
      6.30968719243    2.10322906414    2.10322906414    2.00000000000
      6.30968719243   -2.10322906414    2.10322906414    2.00000000000
      2.10322906414   -6.30968719243    2.10322906414    2.00000000000
     -2.10322906414   -6.30968719243    2.10322906414    2.00000000000
     -6.30968719243   -2.10322906414    2.10322906414    2.00000000000
     -6.30968719243    2.10322906414   -2.10322906414    2.00000000000
     -2.10322906414    6.30968719243   -2.10322906414    2.00000000000
      2.10322906414    6.30968719243   -2.10322906414    2.00000000000
      6.30968719243    2.10322906414   -2.10322906414    2.00000000000
      6.30968719243   -2.10322906414   -2.10322906414    2.00000000000
      2.10322906414   -6.30968719243   -2.10322906414    2.00000000000
     -2.10322906414   -6.30968719243   -2.10322906414    2.00000000000
     -6.30968719243   -2.10322906414   -2.10322906414    2.00000000000
     -2.10322906414    2.10322906414   -6.30968719243    2.00000000000
      2.10322906414    2.10322906414   -6.30968719243    2.00000000000
      2.10322906414   -2.10322906414   -6.30968719243    2.00000000000
     -2.10322906414   -2.10322906414   -6.30968719243    2.00000000000
     -4.20645812828    4.20645812828    4.20645812828   -2.00000000000
      4.20645812828    4.20645812828    4.20645812828   -2.00000000000
      4.20645812828   -4.20645812828    4.20645812828   -2.00000000000
     -4.20645812828   -4.20645812828    4.20645812828   -2.00000000000
     -4.20645812828    4.20645812828   -4.20645812828   -2.00000000000
      4.20645812828    4.20645812828   -4.20645812828   -2.00000000000
      4.20645812828   -4.20645812828   -4.20645812828   -2.00000000000
     -4.20645812828   -4.20645812828   -4.20645812828   -2.00000000000
     -4.20645812828    0.00000000000    6.30968719243    2.00000000000
      0.00000000000    4.20645812828    6.30968719243    2.00000000000
      4.20645812828    0.00000000000    6.30968719243    2.00000000000
      0.00000000000   -4.20645812828    6.30968719243    2.00000000000
     -6.30968719243    0.00000000000    4.20645812828    2.00000000000
      0.00000000000    6.30968719243    4.20645812828    2.00000000000
      6.30968719243    0.00000000000    4.20645812828    2.00000000000
      0.00000000000   -6.30968719243    4.20645812828    2.00000000000
     -6.30968719243    4.20645812828    0.00000000000    2.00000000000
     -4.20645812828    6.30968719243    0.00000000000    2.00000000000
      4.20645812828    6.30968719243    0.00000000000    2.00000000000
      6.30968719243    4.20645812828    0.00000000000    2.00000000000
      6.30968719243   -4.20645812828    0.00000000000    2.00000000000
      4.20645812828   -6.30968719243    0.00000000000    2.00000000000
     -4.20645812828   -6.30968719243    0.00000000000    2.00000000000
     -6.30968719243   -4.20645812828    0.00000000000    2.00000000000
     -6.30968719243    0.00000000000   -4.20645812828    2.00000000000
      0.00000000000    6.30968719243   -4.20645812828    2.00000000000
      6.30968719243    0.00000000000   -4.20645812828    2.00000000000
      0.00000000000   -6.30968719243   -4.20645812828    2.00000000000
     -4.20645812828    0.00000000000   -6.30968719243    2.00000000000
      0.00000000000    4.20645812828   -6.30968719243    2.00000000000
      4.20645812828    0.00000000000   -6.30968719243    2.00000000000
      0.00000000000   -4.20645812828   -6.30968719243    2.00000000000
     -4.20645812828    2.10322906414    6.30968719243   -2.00000000000
     -2.10322906414    4.20645812828    6.30968719243   -2.00000000000
      2.10322906414    4.20645812828    6.30968719243   -2.00000000000
      4.20645812828    2.10322906414    6.30968719243   -2.00000000000
      4.20645812828   -2.10322906414    6.30968719243   -2.00000000000
      2.10322906414   -4.20645812828    6.30968719243   -2.00000000000
     -2.10322906414   -4.20645812828    6.30968719243   -2.00000000000
     -4.20645812828   -2.10322906414    6.30968719243   -2.00000000000
     -6.30968719243    2.10322906414    4.20645812828   -2.00000000000
     -2.10322906414    6.30968719243    4.20645812828   -2.00000000000
      2.10322906414    6.30968719243    4.20645812828   -2.00000000000
      6.30968719243    2.10322906414    4.20645812828   -2.00000000000
      6.30968719243   -2.10322906414    4.20645812828   -2.00000000000
      2.10322906414   -6.30968719243    4.20645812828   -2.00000000000
     -2.10322906414   -6.30968719243    4.20645812828   -2.00000000000
     -6.30968719243   -2.10322906414    4.20645812828   -2.00000000000
     -6.30968719243    4.20645812828    2.10322906414   -2.00000000000
     -4.20645812828    6.30968719243    2.10322906414   -2.00000000000
      4.20645812828    6.30968719243    2.10322906414   -2.00000000000
      6.30968719243    4.20645812828    2.10322906414   -2.00000000000
      6.30968719243   -4.20645812828    2.10322906414   -2.00000000000
      4.20645812828   -6.30968719243    2.10322906414   -2.00000000000
     -4.20645812828   -6.30968719243    2.10322906414   -2.00000000000
     -6.30968719243   -4.20645812828    2.10322906414   -2.00000000000
     -6.30968719243    4.20645812828   -2.10322906414   -2.00000000000
     -4.20645812828    6.30968719243   -2.10322906414   -2.00000000000
      4.20645812828    6.30968719243   -2.10322906414   -2.00000000000
      6.30968719243    4.20645812828   -2.10322906414   -2.00000000000
      6.30968719243   -4.20645812828   -2.10322906414   -2.00000000000
      4.20645812828   -6.30968719243   -2.10322906414   -2.00000000000
     -4.20645812828   -6.30968719243   -2.10322906414   -2.00000000000
     -6.30968719243   -4.20645812828   -2.10322906414   -2.00000000000
     -6.30968719243    2.10322906414   -4.20645812828   -2.00000000000
     -2.10322906414    6.30968719243   -4.20645812828   -2.00000000000
      2.10322906414    6.30968719243   -4.20645812828   -2.00000000000
      6.30968719243    2.10322906414   -4.20645812828   -2.00000000000
      6.30968719243   -2.10322906414   -4.20645812828   -2.00000000000
      2.10322906414   -6.30968719243   -4.20645812828   -2.00000000000
     -2.10322906414   -6.30968719243   -4.20645812828   -2.00000000000
     -6.30968719243   -2.10322906414   -4.20645812828   -2.00000000000
     -4.20645812828    2.10322906414   -6.30968719243   -2.00000000000
     -2.10322906414    4.20645812828   -6.30968719243   -2.00000000000
      2.10322906414    4.20645812828   -6.30968719243   -2.00000000000
      4.20645812828    2.10322906414   -6.30968719243   -2.00000000000
      4.20645812828   -2.10322906414   -6.30968719243   -2.00000000000
      2.10322906414   -4.20645812828   -6.30968719243   -2.00000000000
     -2.10322906414   -4.20645812828   -6.30968719243   -2.00000000000
     -4.20645812828   -2.10322906414   -6.30968719243   -2.00000000000
      0.00000000000    0.00000000000    8.41291625657   -2.00000000000
     -8.41291625657    0.00000000000    0.00000000000   -2.00000000000
      0.00000000000    8.41291625657    0.00000000000   -2.00000000000
      8.41291625657    0.00000000000    0.00000000000   -2.00000000000
      0.00000000000   -8.41291625657    0.00000000000   -2.00000000000
      0.00000000000    0.00000000000   -8.41291625657   -2.00000000000
     -2.10322906414    0.00000000000    8.41291625657    2.00000000000
      0.00000000000    2.10322906414    8.41291625657    2.00000000000
      2.10322906414    0.00000000000    8.41291625657    2.00000000000
      0.00000000000   -2.10322906414    8.41291625657    2.00000000000
     -4.20645812828    4.20645812828    6.30968719243    2.00000000000
      4.20645812828    4.20645812828    6.30968719243    2.00000000000
      4.20645812828   -4.20645812828    6.30968719243    2.00000000000
     -4.20645812828   -4.20645812828    6.30968719243    2.00000000000
     -6.30968719243    4.20645812828    4.20645812828    2.00000000000
     -4.20645812828    6.30968719243    4.20645812828    2.00000000000
      4.20645812828    6.30968719243    4.20645812828    2.00000000000
      6.30968719243    4.20645812828    4.20645812828    2.00000000000
      6.30968719243   -4.20645812828    4.20645812828    2.00000000000
      4.20645812828   -6.30968719243    4.20645812828    2.00000000000
     -4.20645812828   -6.30968719243    4.20645812828    2.00000000000
     -6.30968719243   -4.20645812828    4.20645812828    2.00000000000
     -8.41291625657    0.00000000000    2.10322906414    2.00000000000
      0.00000000000    8.41291625657    2.10322906414    2.00000000000
      8.41291625657    0.00000000000    2.10322906414    2.00000000000
      0.00000000000   -8.41291625657    2.10322906414    2.00000000000
     -8.41291625657    2.10322906414    0.00000000000    2.00000000000
     -2.10322906414    8.41291625657    0.00000000000    2.00000000000
      2.10322906414    8.41291625657    0.00000000000    2.00000000000
      8.41291625657    2.10322906414    0.00000000000    2.00000000000
      8.41291625657   -2.10322906414    0.00000000000    2.00000000000
      2.10322906414   -8.41291625657    0.00000000000    2.00000000000
     -2.10322906414   -8.41291625657    0.00000000000    2.00000000000
     -8.41291625657   -2.10322906414    0.00000000000    2.00000000000
     -8.41291625657    0.00000000000   -2.10322906414    2.00000000000
      0.00000000000    8.41291625657   -2.10322906414    2.00000000000
      8.41291625657    0.00000000000   -2.10322906414    2.00000000000
      0.00000000000   -8.41291625657   -2.10322906414    2.00000000000
     -6.30968719243    4.20645812828   -4.20645812828    2.00000000000
     -4.20645812828    6.30968719243   -4.20645812828    2.00000000000
      4.20645812828    6.30968719243   -4.20645812828    2.00000000000
      6.30968719243    4.20645812828   -4.20645812828    2.00000000000
      6.30968719243   -4.20645812828   -4.20645812828    2.00000000000
      4.20645812828   -6.30968719243   -4.20645812828    2.00000000000
     -4.20645812828   -6.30968719243   -4.20645812828    2.00000000000
     -6.30968719243   -4.20645812828   -4.20645812828    2.00000000000
     -4.20645812828    4.20645812828   -6.30968719243    2.00000000000
      4.20645812828    4.20645812828   -6.30968719243    2.00000000000
      4.20645812828   -4.20645812828   -6.30968719243    2.00000000000
     -4.20645812828   -4.20645812828   -6.30968719243    2.00000000000
     -2.10322906414    0.00000000000   -8.41291625657    2.00000000000
      0.00000000000    2.10322906414   -8.41291625657    2.00000000000
      2.10322906414    0.00000000000   -8.41291625657    2.00000000000
      0.00000000000   -2.10322906414   -8.41291625657    2.00000000000
     -2.10322906414    2.10322906414    8.41291625657   -2.00000000000
      2.10322906414    2.10322906414    8.41291625657   -2.00000000000
      2.10322906414   -2.10322906414    8.41291625657   -2.00000000000
     -2.10322906414   -2.10322906414    8.41291625657   -2.00000000000
     -6.30968719243    0.00000000000    6.30968719243   -2.00000000000
      0.00000000000    6.30968719243    6.30968719243   -2.00000000000
      6.30968719243    0.00000000000    6.30968719243   -2.00000000000
      0.00000000000   -6.30968719243    6.30968719243   -2.00000000000
     -8.41291625657    2.10322906414    2.10322906414   -2.00000000000
     -2.10322906414    8.41291625657    2.10322906414   -2.00000000000
      2.10322906414    8.41291625657    2.10322906414   -2.00000000000
      8.41291625657    2.10322906414    2.10322906414   -2.00000000000
      8.41291625657   -2.10322906414    2.10322906414   -2.00000000000
      2.10322906414   -8.41291625657    2.10322906414   -2.00000000000
     -2.10322906414   -8.41291625657    2.10322906414   -2.00000000000
     -8.41291625657   -2.10322906414    2.10322906414   -2.00000000000
     -6.30968719243    6.30968719243    0.00000000000   -2.00000000000
      6.30968719243    6.30968719243    0.00000000000   -2.00000000000
      6.30968719243   -6.30968719243    0.00000000000   -2.00000000000
     -6.30968719243   -6.30968719243    0.00000000000   -2.00000000000
     -8.41291625657    2.10322906414   -2.10322906414   -2.00000000000
     -2.10322906414    8.41291625657   -2.10322906414   -2.00000000000
      2.10322906414    8.41291625657   -2.10322906414   -2.00000000000
      8.41291625657    2.10322906414   -2.10322906414   -2.00000000000
      8.41291625657   -2.10322906414   -2.10322906414   -2.00000000000
      2.10322906414   -8.41291625657   -2.10322906414   -2.00000000000
     -2.10322906414   -8.41291625657   -2.10322906414   -2.00000000000
     -8.41291625657   -2.10322906414   -2.10322906414   -2.00000000000
     -6.30968719243    0.00000000000   -6.30968719243   -2.00000000000
      0.00000000000    6.30968719243   -6.30968719243   -2.00000000000
      6.30968719243    0.00000000000   -6.30968719243   -2.00000000000
      0.00000000000   -6.30968719243   -6.30968719243   -2.00000000000
     -2.10322906414    2.10322906414   -8.41291625657   -2.00000000000
      2.10322906414    2.10322906414   -8.41291625657   -2.00000000000
      2.10322906414   -2.10322906414   -8.41291625657   -2.00000000000
     -2.10322906414   -2.10322906414   -8.41291625657   -2.00000000000
     -6.30968719243    2.10322906414    6.30968719243    2.00000000000
     -2.10322906414    6.30968719243    6.30968719243    2.00000000000
      2.10322906414    6.30968719243    6.30968719243    2.00000000000
      6.30968719243    2.10322906414    6.30968719243    2.00000000000
      6.30968719243   -2.10322906414    6.30968719243    2.00000000000
      2.10322906414   -6.30968719243    6.30968719243    2.00000000000
     -2.10322906414   -6.30968719243    6.30968719243    2.00000000000
     -6.30968719243   -2.10322906414    6.30968719243    2.00000000000
     -6.30968719243    6.30968719243    2.10322906414    2.00000000000
      6.30968719243    6.30968719243    2.10322906414    2.00000000000
      6.30968719243   -6.30968719243    2.10322906414    2.00000000000
     -6.30968719243   -6.30968719243    2.10322906414    2.00000000000
     -6.30968719243    6.30968719243   -2.10322906414    2.00000000000
      6.30968719243    6.30968719243   -2.10322906414    2.00000000000
      6.30968719243   -6.30968719243   -2.10322906414    2.00000000000
     -6.30968719243   -6.30968719243   -2.10322906414    2.00000000000
     -6.30968719243    2.10322906414   -6.30968719243    2.00000000000
     -2.10322906414    6.30968719243   -6.30968719243    2.00000000000
      2.10322906414    6.30968719243   -6.30968719243    2.00000000000
      6.30968719243    2.10322906414   -6.30968719243    2.00000000000
      6.30968719243   -2.10322906414   -6.30968719243    2.00000000000
      2.10322906414   -6.30968719243   -6.30968719243    2.00000000000
     -2.10322906414   -6.30968719243   -6.30968719243    2.00000000000
     -6.30968719243   -2.10322906414   -6.30968719243    2.00000000000
     -4.20645812828    0.00000000000    8.41291625657   -2.00000000000
      0.00000000000    4.20645812828    8.41291625657   -2.00000000000
      4.20645812828    0.00000000000    8.41291625657   -2.00000000000
      0.00000000000   -4.20645812828    8.41291625657   -2.00000000000
     -8.41291625657    0.00000000000    4.20645812828   -2.00000000000
      0.00000000000    8.41291625657    4.20645812828   -2.00000000000
      8.41291625657    0.00000000000    4.20645812828   -2.00000000000
      0.00000000000   -8.41291625657    4.20645812828   -2.00000000000
     -8.41291625657    4.20645812828    0.00000000000   -2.00000000000
     -4.20645812828    8.41291625657    0.00000000000   -2.00000000000
      4.20645812828    8.41291625657    0.00000000000   -2.00000000000
      8.41291625657    4.20645812828    0.00000000000   -2.00000000000
      8.41291625657   -4.20645812828    0.00000000000   -2.00000000000
      4.20645812828   -8.41291625657    0.00000000000   -2.00000000000
     -4.20645812828   -8.41291625657    0.00000000000   -2.00000000000
     -8.41291625657   -4.20645812828    0.00000000000   -2.00000000000
     -8.41291625657    0.00000000000   -4.20645812828   -2.00000000000
      0.00000000000    8.41291625657   -4.20645812828   -2.00000000000
      8.41291625657    0.00000000000   -4.20645812828   -2.00000000000
      0.00000000000   -8.41291625657   -4.20645812828   -2.00000000000
     -4.20645812828    0.00000000000   -8.41291625657   -2.00000000000
      0.00000000000    4.20645812828   -8.41291625657   -2.00000000000
      4.20645812828    0.00000000000   -8.41291625657   -2.00000000000
      0.00000000000   -4.20645812828   -8.41291625657   -2.00000000000
     -4.20645812828    2.10322906414    8.41291625657    2.00000000000
     -2.10322906414    4.20645812828    8.41291625657    2.00000000000
      2.10322906414    4.20645812828    8.41291625657    2.00000000000
      4.20645812828    2.10322906414    8.41291625657    2.00000000000
[...]
 Number of occupied orbitals:    49
 Number of virtual  orbitals:  2155
 Number of Cholesky vectors:      8
OMP: Info #276: omp_set_nested routine deprecated, please use omp_set_max_active_levels instead.
 Number of NAFs:               1683  (26.51%)
 MP2 energy in ED [au]:          -0.088589344080
 CPU time [min]: 65686.869                   Wall time [min]:  2041.429
 
 MO:   288
 Number of atoms in domain:      99
 Number of atomic orbitals:    5871
 Number of atoms for local DF:   60
 Number of fitting functions:  8837  (61.14%)
 Warning: drop high-lying PAOs                    60
 Number of occupied orbitals:    83
 Number of virtual  orbitals:  3191
 Number of Cholesky vectors:      8
OMP: Info #276: omp_set_nested routine deprecated, please use omp_set_max_active_levels instead.
 Number of NAFs:               2858  (32.34%)
 MP2 energy in ED [au]:          -0.091919905737
 CPU time [min]: 66003.650                   Wall time [min]:  2052.613
 
 MO:   289
 Number of atoms in domain:     117
 Number of atomic orbitals:    6897
 Number of atoms for local DF:   66
 Number of fitting functions:  9800  (57.68%)
 Warning: drop high-lying PAOs                    66
 Number of occupied orbitals:    88
 Number of virtual  orbitals:  3797
 Number of Cholesky vectors:      8
OMP: Info #276: omp_set_nested routine deprecated, please use omp_set_max_active_levels instead.
 Number of NAFs:               3124  (31.88%)
 MP2 energy in ED [au]:          -0.092079228761
 CPU time [min]: 66407.354                   Wall time [min]:  2067.445
 
 MO:   290
 Number of atoms in domain:     107
 Number of atomic orbitals:    6327
 Number of atoms for local DF:   69
 Number of fitting functions: 10171  (65.28%)
 Warning: drop high-lying PAOs                    69
 Number of occupied orbitals:    90
 Number of virtual  orbitals:  3753
 Number of Cholesky vectors:      8
OMP: Info #276: omp_set_nested routine deprecated, please use omp_set_max_active_levels instead.
 Number of NAFs:               3182  (31.29%)
 MP2 energy in ED [au]:          -0.092009664506
 CPU time [min]: 66818.277                   Wall time [min]:  2082.337
 
 MO:   291
 Number of atoms in domain:     117
 Number of atomic orbitals:    6897
 Number of atoms for local DF:   64
 Number of fitting functions:  9518  (56.02%)
 Warning: drop high-lying PAOs                    64
 Number of occupied orbitals:    88
 Number of virtual  orbitals:  3691
 Number of Cholesky vectors:      8
OMP: Info #276: omp_set_nested routine deprecated, please use omp_set_max_active_levels instead.
 Number of NAFs:               3169  (33.29%)
 MP2 energy in ED [au]:          -0.092082751222
 CPU time [min]: 67212.925                   Wall time [min]:  2097.135
 
 MO:   292
 Number of atoms in domain:      80
 Number of atomic orbitals:    4788
 Number of atoms for local DF:   41
 Number of fitting functions:  6054  (51.42%)
 Warning: drop high-lying PAOs                    41
 Number of occupied orbitals:    51
 Number of virtual  orbitals:  2052
 Number of Cholesky vectors:      8
OMP: Info #276: omp_set_nested routine deprecated, please use omp_set_max_active_levels instead.
 Number of NAFs:               1745  (28.82%)
 MP2 energy in ED [au]:          -0.087797933971
 CPU time [min]: 67335.534                   Wall time [min]:  2100.842
 
 MO:   293
 Number of atoms in domain:      90
 Number of atomic orbitals:    5358
 Number of atoms for local DF:   54
 Number of fitting functions:  7965  (60.41%)
 Warning: drop high-lying PAOs                    54
 Number of occupied orbitals:    63
 Number of virtual  orbitals:  2750
 Number of Cholesky vectors:      8
OMP: Info #276: omp_set_nested routine deprecated, please use omp_set_max_active_levels instead.
 Number of NAFs:               2128  (26.72%)
 MP2 energy in ED [au]:          -0.089754504910
 CPU time [min]: 67543.499                   Wall time [min]:  2107.587
 
 MO:   294
 Number of atoms in domain:      90
 Number of atomic orbitals:    5358
 Number of atoms for local DF:   52
 Number of fitting functions:  7657  (58.08%)
 Warning: drop high-lying PAOs                    52
 Number of occupied orbitals:    64
 Number of virtual  orbitals:  2685
 Number of Cholesky vectors:      8
OMP: Info #276: omp_set_nested routine deprecated, please use omp_set_max_active_levels instead.
 Number of NAFs:               2150  (28.08%)
 MP2 energy in ED [au]:          -0.089757607473
 CPU time [min]: 67747.937                   Wall time [min]:  2114.199
 
 MO:   295
 Number of atoms in domain:     108
 Number of atomic orbitals:    6384
 Number of atoms for local DF:   69
 Number of fitting functions: 10158  (64.61%)
 Warning: drop high-lying PAOs                    69
 Number of occupied orbitals:    87
 Number of virtual  orbitals:  3805
 Number of Cholesky vectors:      8
OMP: Info #276: omp_set_nested routine deprecated, please use omp_set_max_active_levels instead.
 Number of NAFs:               3047  (30.00%)
 MP2 energy in ED [au]:          -0.091998457029
 CPU time [min]: 68158.837                   Wall time [min]:  2128.780
 
 MO:   296
 Number of atoms in domain:      92
 Number of atomic orbitals:    5472
 Number of atoms for local DF:   55
 Number of fitting functions:  8106  (60.20%)
 Warning: drop high-lying PAOs                    55
 Number of occupied orbitals:    65
 Number of virtual  orbitals:  2852
 Number of Cholesky vectors:      8
OMP: Info #276: omp_set_nested routine deprecated, please use omp_set_max_active_levels instead.
 Number of NAFs:               2216  (27.34%)
 MP2 energy in ED [au]:          -0.089769106747
 CPU time [min]: 68381.410                   Wall time [min]:  2136.249
 
 MO:   297
 Number of atoms in domain:     104
 Number of atomic orbitals:    6156
 Number of atoms for local DF:   62
 Number of fitting functions:  9145  (60.33%)
 Warning: drop high-lying PAOs                    62
 Number of occupied orbitals:    89
 Number of virtual  orbitals:  3367
 Number of Cholesky vectors:      8
OMP: Info #276: omp_set_nested routine deprecated, please use omp_set_max_active_levels instead.
 Number of NAFs:               3125  (34.17%)
 MP2 energy in ED [au]:          -0.091975620390
 CPU time [min]: 68736.210                   Wall time [min]:  2149.101
 
 MO:   298
 Number of atoms in domain:      99
 Number of atomic orbitals:    5871
 Number of atoms for local DF:   62
 Number of fitting functions:  9158  (63.36%)
 Warning: drop high-lying PAOs                    62
 Number of occupied orbitals:    86
 Number of virtual  orbitals:  3213
 Number of Cholesky vectors:      8
OMP: Info #276: omp_set_nested routine deprecated, please use omp_set_max_active_levels instead.
 Number of NAFs:               2960  (32.32%)
 MP2 energy in ED [au]:          -0.091925862992
 CPU time [min]: 69073.922                   Wall time [min]:  2160.959
 
 MO:   299
 Number of atoms in domain:      86
 Number of atomic orbitals:    5130
 Number of atoms for local DF:   45
 Number of fitting functions:  6644  (52.65%)
 Warning: drop high-lying PAOs                    45
 Number of occupied orbitals:    59
 Number of virtual  orbitals:  2293
 Number of Cholesky vectors:      8
OMP: Info #276: omp_set_nested routine deprecated, please use omp_set_max_active_levels instead.
 Number of NAFs:               1963  (29.55%)
 MP2 energy in ED [au]:          -0.089673804845
 CPU time [min]: 69228.502                   Wall time [min]:  2165.968
 
 MO:   300
 Number of atoms in domain:     104
 Number of atomic orbitals:    6156
 Number of atoms for local DF:   63
 Number of fitting functions:  9286  (61.26%)
 Warning: drop high-lying PAOs                    63
 Number of occupied orbitals:    91
 Number of virtual  orbitals:  3425
 Number of Cholesky vectors:      8
OMP: Info #276: omp_set_nested routine deprecated, please use omp_set_max_active_levels instead.
 Number of NAFs:               3187  (34.32%)
 MP2 energy in ED [au]:          -0.092016232423
 CPU time [min]: 69594.451                   Wall time [min]:  2179.082
 
 MO:   301
 Number of atoms in domain:      90
 Number of atomic orbitals:    5358
 Number of atoms for local DF:   52
 Number of fitting functions:  7657  (58.08%)
 Warning: drop high-lying PAOs                    52
 Number of occupied orbitals:    65
 Number of virtual  orbitals:  2687
 Number of Cholesky vectors:      8
OMP: Info #276: omp_set_nested routine deprecated, please use omp_set_max_active_levels instead.
 Number of NAFs:               2170  (28.34%)
 MP2 energy in ED [au]:          -0.089766528038
 CPU time [min]: 69805.037                   Wall time [min]:  2186.087
 
 MO:   302
 Number of atoms in domain:      85
 Number of atomic orbitals:    5073
 Number of atoms for local DF:   45
 Number of fitting functions:  6644  (53.24%)
 Warning: drop high-lying PAOs                    45
 Number of occupied orbitals:    59
 Number of virtual  orbitals:  2281
 Number of Cholesky vectors:      8
OMP: Info #276: omp_set_nested routine deprecated, please use omp_set_max_active_levels instead.
 Number of NAFs:               1959  (29.49%)
 MP2 energy in ED [au]:          -0.089674319937
 CPU time [min]: 69955.783                   Wall time [min]:  2190.992
 
 MO:   303
 Number of atoms in domain:      80
 Number of atomic orbitals:    4782
 Number of atoms for local DF:   38
 Number of fitting functions:  5605  (47.66%)
 Warning: drop high-lying PAOs                    38
 Number of occupied orbitals:    38
 Number of virtual  orbitals:  1948
 Number of Cholesky vectors:      7
OMP: Info #276: omp_set_nested routine deprecated, please use omp_set_max_active_levels instead.
 Number of NAFs:               1209  (21.57%)
 MP2 energy in ED [au]:          -0.086335812387
 CPU time [min]: 70047.986                   Wall time [min]:  2193.780
 
 MO:   304
 Number of atoms in domain:      86
 Number of atomic orbitals:    5130
 Number of atoms for local DF:   45
 Number of fitting functions:  6644  (52.65%)
 Warning: drop high-lying PAOs                    45
 Number of occupied orbitals:    59
 Number of virtual  orbitals:  2305
 Number of Cholesky vectors:      8
OMP: Info #276: omp_set_nested routine deprecated, please use omp_set_max_active_levels instead.
 Number of NAFs:               1962  (29.53%)
 MP2 energy in ED [au]:          -0.089678111560
 CPU time [min]: 70201.205                   Wall time [min]:  2198.731
 
 MO:   305
 Number of atoms in domain:      90
 Number of atomic orbitals:    5358
 Number of atoms for local DF:   52
 Number of fitting functions:  7657  (58.08%)
 Warning: drop high-lying PAOs                    52
 Number of occupied orbitals:    64
 Number of virtual  orbitals:  2685
 Number of Cholesky vectors:      8
OMP: Info #276: omp_set_nested routine deprecated, please use omp_set_max_active_levels instead.
 Number of NAFs:               2149  (28.07%)
 MP2 energy in ED [au]:          -0.089756126994
 CPU time [min]: 70404.391                   Wall time [min]:  2205.380
 
 MO:   306
 Number of atoms in domain:     106
 Number of atomic orbitals:    6270
 Number of atoms for local DF:   65
 Number of fitting functions:  9568  (61.97%)
 Warning: drop high-lying PAOs                    65
 Number of occupied orbitals:    92
 Number of virtual  orbitals:  3560
 Number of Cholesky vectors:      8
OMP: Info #276: omp_set_nested routine deprecated, please use omp_set_max_active_levels instead.
 Number of NAFs:               3275  (34.23%)
 MP2 energy in ED [au]:          -0.092022598994
 CPU time [min]: 70795.432                   Wall time [min]:  2219.456
 
 MO:   307
 Number of atoms in domain:      97
 Number of atomic orbitals:    5757
 Number of atoms for local DF:   58
 Number of fitting functions:  8542  (60.28%)
 Warning: drop high-lying PAOs                    58
 Number of occupied orbitals:    89
 Number of virtual  orbitals:  3091
 Number of Cholesky vectors:      8
OMP: Info #276: omp_set_nested routine deprecated, please use omp_set_max_active_levels instead.
 Number of NAFs:               3101  (36.30%)
 MP2 energy in ED [au]:          -0.091949109844
 CPU time [min]: 71111.985                   Wall time [min]:  2230.639
 
 MO:   308
 Number of atoms in domain:     117
 Number of atomic orbitals:    6897
 Number of atoms for local DF:   64
 Number of fitting functions:  9518  (56.02%)
 Warning: drop high-lying PAOs                    64
 Number of occupied orbitals:    87
 Number of virtual  orbitals:  3691
 Number of Cholesky vectors:      8
OMP: Info #276: omp_set_nested routine deprecated, please use omp_set_max_active_levels instead.
 Number of NAFs:               3188  (33.49%)
 MP2 energy in ED [au]:          -0.092073110378
 CPU time [min]: 71502.067                   Wall time [min]:  2244.848
 
 MO:   309
 Number of atoms in domain:      78
 Number of atomic orbitals:    4662
 Number of atoms for local DF:   38
 Number of fitting functions:  5605  (48.88%)
 Warning: drop high-lying PAOs                    38
 Number of occupied orbitals:    38
 Number of virtual  orbitals:  1929
 Number of Cholesky vectors:      7
OMP: Info #276: omp_set_nested routine deprecated, please use omp_set_max_active_levels instead.
 Number of NAFs:               1208  (21.55%)
 MP2 energy in ED [au]:          -0.086330160814
 CPU time [min]: 71593.436                   Wall time [min]:  2247.654
 
 MO:   310
 Number of atoms in domain:      79
 Number of atomic orbitals:    4725
 Number of atoms for local DF:   41
 Number of fitting functions:  6054  (52.10%)
 Warning: drop high-lying PAOs                    41
 Number of occupied orbitals:    51
 Number of virtual  orbitals:  2051
 Number of Cholesky vectors:      8
OMP: Info #276: omp_set_nested routine deprecated, please use omp_set_max_active_levels instead.
 Number of NAFs:               1742  (28.77%)
 MP2 energy in ED [au]:          -0.087796589878
 CPU time [min]: 71715.746                   Wall time [min]:  2251.404
 
 MO:   311
 Number of atoms in domain:      80
 Number of atomic orbitals:    4788
 Number of atoms for local DF:   41
 Number of fitting functions:  6054  (51.42%)
 Warning: drop high-lying PAOs                    41
 Number of occupied orbitals:    50
 Number of virtual  orbitals:  2035
 Number of Cholesky vectors:      8
OMP: Info #276: omp_set_nested routine deprecated, please use omp_set_max_active_levels instead.
 Number of NAFs:               1709  (28.23%)
 MP2 energy in ED [au]:          -0.087791615692
 CPU time [min]: 71835.809                   Wall time [min]:  2255.112
 
 MO:   312
 Number of atoms in domain:     108
 Number of atomic orbitals:    6384
 Number of atoms for local DF:   70
 Number of fitting functions: 10312  (65.59%)
 Warning: drop high-lying PAOs                    70
 Number of occupied orbitals:    86
 Number of virtual  orbitals:  3842
 Number of Cholesky vectors:      8
OMP: Info #276: omp_set_nested routine deprecated, please use omp_set_max_active_levels instead.
 Number of NAFs:               3004  (29.13%)
 MP2 energy in ED [au]:          -0.092005221856
 CPU time [min]: 72245.115                   Wall time [min]:  2269.908
 
 MO:   313
 Number of atoms in domain:      85
 Number of atomic orbitals:    5073
 Number of atoms for local DF:   46
 Number of fitting functions:  6798  (54.48%)
 Warning: drop high-lying PAOs                    46
 Number of occupied orbitals:    59
 Number of virtual  orbitals:  2307
 Number of Cholesky vectors:      8
OMP: Info #276: omp_set_nested routine deprecated, please use omp_set_max_active_levels instead.
 Number of NAFs:               1960  (28.83%)
 MP2 energy in ED [au]:          -0.089674108559
 CPU time [min]: 72405.289                   Wall time [min]:  2275.147
 
 MO:   314
 Number of atoms in domain:     102
 Number of atomic orbitals:    6042
 Number of atoms for local DF:   61
 Number of fitting functions:  8991  (60.44%)
 Warning: drop high-lying PAOs                    61
 Number of occupied orbitals:    92
 Number of virtual  orbitals:  3283
 Number of Cholesky vectors:      8
OMP: Info #276: omp_set_nested routine deprecated, please use omp_set_max_active_levels instead.
 Number of NAFs:               3202  (35.61%)
 MP2 energy in ED [au]:          -0.091997982332
 CPU time [min]: 72751.586                   Wall time [min]:  2287.892
 
 MO:   315
 Number of atoms in domain:      86
 Number of atomic orbitals:    5130
 Number of atoms for local DF:   47
 Number of fitting functions:  6939  (54.98%)
 Warning: drop high-lying PAOs                    47
 Number of occupied orbitals:    60
 Number of virtual  orbitals:  2381
 Number of Cholesky vectors:      8
OMP: Info #276: omp_set_nested routine deprecated, please use omp_set_max_active_levels instead.
 Number of NAFs:               2023  (29.15%)
 MP2 energy in ED [au]:          -0.089687441732
 CPU time [min]: 72920.456                   Wall time [min]:  2293.361
 
 MO:   316
 Number of atoms in domain:     100
 Number of atomic orbitals:    5928
 Number of atoms for local DF:   61
 Number of fitting functions:  9004  (61.70%)
 Warning: drop high-lying PAOs                    61
 Number of occupied orbitals:    88
 Number of virtual  orbitals:  3216
 Number of Cholesky vectors:      8
OMP: Info #276: omp_set_nested routine deprecated, please use omp_set_max_active_levels instead.
 Number of NAFs:               3047  (33.84%)
 MP2 energy in ED [au]:          -0.091968796685
 CPU time [min]: 73263.958                   Wall time [min]:  2305.472
 
 **********************************************************************
 Dimensions of the extended domains:    Minimum / Average / Maximum
 
 Number of atoms in domain:                  77      87.1       117
 Number of atomic orbitals:                4599    5188.4      6897
 Number of fitting functions:              5464    6919.9     10466
 Number of occupied localized MOs:           38      57.9        92
 Number of PAOs:                           1770    2414.3      3872
 Number of NAFs:                           1203    1944.9      3275
 
 **********************************************************************
 Final local correlation results
 
 Sum of pair energies [au]:                    -0.059690801482    (0.212%)
 Sum of energy corrections [au]:                0.000000000000    (0.000%)
 Sum of LMO contributions [au]:               -28.071470360832
 
 Reference energy [au]:                    -23124.800454392651
 MP2 contribution [au]:                        -7.595413513825
 B2PLYP energy [au]:                       -23132.395867906474
 
 **********************************************************************
  Time of manipulations in the EDs:      max CPU/Wall [s]  all CPU/Wall [min]
 
 PD construction & multipole pair E  ********* 26975.91 17815.19   449.60
 Construct MO basis of the ED           933.92    23.57  1485.00    37.47
 (mu,nu|P) evaluation & trf 2 (ai|P)  20274.60   763.39 46491.11  1622.29
 Assembly of (Ia|jb)                    659.15    18.45   809.48    22.87
 Build W_PQ (Jai or Jpi part)           877.46    22.15  1175.43    30.78
 Diagonalize W_PQ                       970.79    24.33  1853.05    46.44
 Transform (ai|P) to the NAF basis      623.61    18.33   872.14    26.04
 Evaluate MP2 energy of the ED         1748.89    43.83  2297.10    57.57
 Total of the above for all EDs       26088.41   914.06 54983.30  1843.45
 
 **********************************************************************
 Maximum memory requirement [MB]:       
 
 PD construction & multipole pair E       3677.5
 AO integral evaluation in the EDs        3593.8
 (mu,nu|P) evaluation & trf 2 (aI|P)     40219.0
 NAF construction and trf to NAFs        41535.6
 Evaluate MP2 energy in the EDs          20054.2
 
 ************************ 2022-01-08 08:09:09 *************************
                      Normal termination of mrcc.
 **********************************************************************
